
.Version 9.7.2 of ABINIT 
.(MPI version, prepared for a x86_64_linux_intel2021.2 computer) 

.Copyright (C) 1998-2021 ABINIT group . 
 ABINIT comes with ABSOLUTELY NO WARRANTY.
 It is free software, and you are welcome to redistribute it
 under certain conditions (GNU General Public License,
 see ~abinit/COPYING or http://www.gnu.org/copyleft/gpl.txt).

 ABINIT is a project of the Universite Catholique de Louvain,
 Corning Inc. and other collaborators, see ~abinit/doc/developers/contributors.txt .
 Please read https://docs.abinit.org/theory/acknowledgments for suggested
 acknowledgments of the ABINIT effort.
 For more information, see https://www.abinit.org .

.Starting date : Fri 18 Feb 2022.
- ( at 12h43 )
  
- input  file    -> run.abi
- output file    -> run.abo
- root for input  files -> indata/
- root for output files -> outdata/
 
 
 DATASET    4 : space group Fm -3 m (#225); Bravais cF (face-center cubic)
================================================================================
 Values of the parameters that define the memory need for DATASET  4.
     intxc =       0    ionmov =       0      iscf =       7    lmnmax =       6
     lnmax =       6     mgfft =      45  mpssoang =       3    mqgrid =    3001
     natom =       3  nloc_mem =       1    nspden =       1   nspinor =       1
    nsppol =       1      nsym =      48    n1xccc =    2501    ntypat =       2
    occopt =       1   xclevel =       2
-    mband =        1024        mffmem =           1         mkmem =           2
       mpw =        3218          nfft =       91125          nkpt =          29
================================================================================
P This job should need less than                     159.963 Mbytes of memory.
  Rough estimation (10% accuracy) of disk space for files :
_ WF disk file :   1458.158 Mbytes ; DEN or POT disk file :      0.697 Mbytes.
================================================================================
 
--------------------------------------------------------------------------------
------------- Echo of variables that govern the present computation ------------
--------------------------------------------------------------------------------
-
- outvars: echo of selected default values                                      
-   iomode0 =  0 , fftalg0 =512 , wfoptalg0 =  0
-
- outvars: echo of global parameters not present in the input file              
-  max_nthreads =    0
-
 -outvars: echo values of preprocessed input variables --------
            acell      6.7767069783E+00  6.7767069783E+00  6.7767069783E+00 Bohr
              amu      9.12240000E+01  1.59994000E+01
        autoparal           1
             bdgw          12      13      12      13      12      13
           diemac      1.20000000E+01
             ecut      4.50000000E+01 Hartree
         ecutsigx      4.50000000E+01 Hartree
          ecutwfn      4.50000000E+01 Hartree
-          fftalg         512
           getscr           3
           getwfk           2
           istwfk        1    0    0    0    1    0    0    0    0    0
                         0    0    0    0    0    0    0    0    0    0
                         1    0    0    0    0    0    0    0    0
              ixc          11
           jdtset        4
              kpt      0.00000000E+00  0.00000000E+00  0.00000000E+00
                       1.25000000E-01  0.00000000E+00  0.00000000E+00
                       2.50000000E-01  0.00000000E+00  0.00000000E+00
                       3.75000000E-01  0.00000000E+00  0.00000000E+00
                       5.00000000E-01  0.00000000E+00  0.00000000E+00
                       1.25000000E-01  1.25000000E-01  0.00000000E+00
                       2.50000000E-01  1.25000000E-01  0.00000000E+00
                       3.75000000E-01  1.25000000E-01  0.00000000E+00
                       5.00000000E-01  1.25000000E-01  0.00000000E+00
                      -3.75000000E-01  1.25000000E-01  0.00000000E+00
                      -2.50000000E-01  1.25000000E-01  0.00000000E+00
                      -1.25000000E-01  1.25000000E-01  0.00000000E+00
                       2.50000000E-01  2.50000000E-01  0.00000000E+00
                       3.75000000E-01  2.50000000E-01  0.00000000E+00
                       5.00000000E-01  2.50000000E-01  0.00000000E+00
                      -3.75000000E-01  2.50000000E-01  0.00000000E+00
                      -2.50000000E-01  2.50000000E-01  0.00000000E+00
                       3.75000000E-01  3.75000000E-01  0.00000000E+00
                       5.00000000E-01  3.75000000E-01  0.00000000E+00
                      -3.75000000E-01  3.75000000E-01  0.00000000E+00
                       5.00000000E-01  5.00000000E-01  0.00000000E+00
                       3.75000000E-01  2.50000000E-01  1.25000000E-01
                       5.00000000E-01  2.50000000E-01  1.25000000E-01
                      -3.75000000E-01  2.50000000E-01  1.25000000E-01
                       5.00000000E-01  3.75000000E-01  1.25000000E-01
                      -3.75000000E-01  3.75000000E-01  1.25000000E-01
                      -2.50000000E-01  3.75000000E-01  1.25000000E-01
                      -3.75000000E-01  5.00000000E-01  1.25000000E-01
                      -2.50000000E-01  5.00000000E-01  2.50000000E-01
            kptgw      0.00000000E+00  0.00000000E+00  0.00000000E+00
                       5.00000000E-01  5.00000000E-01  0.00000000E+00
                       5.00000000E-01  0.00000000E+00  0.00000000E+00
         kptrlatt        8    0    0      0    8    0      0    0    8
          kptrlen      5.42136558E+01
P           mkmem           2
            natom           3
            nband        1024
           ndtset           1
            ngfft          45      45      45
             nkpt          29
           nkptgw           3
          npwsigx        3143
           npwwfn        3143
            nstep         150
             nsym          48
           ntypat           2
              occ      2.000000  2.000000  2.000000  2.000000  2.000000  2.000000
                       2.000000  2.000000  2.000000  2.000000  2.000000  2.000000
                       0.000000  0.000000  0.000000  0.000000  0.000000  0.000000
                       0.000000  0.000000  0.000000  0.000000  0.000000  0.000000
                       0.000000  0.000000  0.000000  0.000000  0.000000  0.000000
                       0.000000  0.000000  0.000000  0.000000  0.000000  0.000000
                       0.000000  0.000000  0.000000  0.000000  0.000000  0.000000
                       0.000000  0.000000  0.000000  0.000000  0.000000  0.000000
                       0.000000  0.000000  0.000000  0.000000  0.000000  0.000000
                       0.000000  0.000000  0.000000  0.000000  0.000000  0.000000
                       0.000000  0.000000  0.000000  0.000000  0.000000  0.000000
                       0.000000  0.000000  0.000000  0.000000  0.000000  0.000000
                       0.000000  0.000000  0.000000  0.000000  0.000000  0.000000
                       0.000000  0.000000  0.000000  0.000000  0.000000  0.000000
                       0.000000  0.000000  0.000000  0.000000  0.000000  0.000000
                       0.000000  0.000000  0.000000  0.000000  0.000000  0.000000
                       0.000000  0.000000  0.000000  0.000000  0.000000  0.000000
                       0.000000  0.000000  0.000000  0.000000  0.000000  0.000000
                       0.000000  0.000000  0.000000  0.000000  0.000000  0.000000
                       0.000000  0.000000  0.000000  0.000000  0.000000  0.000000
                       0.000000  0.000000  0.000000  0.000000  0.000000  0.000000
                       0.000000  0.000000  0.000000  0.000000  0.000000  0.000000
                       0.000000  0.000000  0.000000  0.000000  0.000000  0.000000
                       0.000000  0.000000  0.000000  0.000000  0.000000  0.000000
                       0.000000  0.000000  0.000000  0.000000  0.000000  0.000000
                       0.000000  0.000000  0.000000  0.000000  0.000000  0.000000
                       0.000000  0.000000  0.000000  0.000000  0.000000  0.000000
                       0.000000  0.000000  0.000000  0.000000  0.000000  0.000000
                       0.000000  0.000000  0.000000  0.000000  0.000000  0.000000
                       0.000000  0.000000  0.000000  0.000000  0.000000  0.000000
                       0.000000  0.000000  0.000000  0.000000  0.000000  0.000000
                       0.000000  0.000000  0.000000  0.000000  0.000000  0.000000
                       0.000000  0.000000  0.000000  0.000000  0.000000  0.000000
                       0.000000  0.000000  0.000000  0.000000  0.000000  0.000000
                       0.000000  0.000000  0.000000  0.000000  0.000000  0.000000
                       0.000000  0.000000  0.000000  0.000000  0.000000  0.000000
                       0.000000  0.000000  0.000000  0.000000  0.000000  0.000000
                       0.000000  0.000000  0.000000  0.000000  0.000000  0.000000
                       0.000000  0.000000  0.000000  0.000000  0.000000  0.000000
                       0.000000  0.000000  0.000000  0.000000  0.000000  0.000000
                       0.000000  0.000000  0.000000  0.000000  0.000000  0.000000
                       0.000000  0.000000  0.000000  0.000000  0.000000  0.000000
                       0.000000  0.000000  0.000000  0.000000  0.000000  0.000000
                       0.000000  0.000000  0.000000  0.000000  0.000000  0.000000
                       0.000000  0.000000  0.000000  0.000000  0.000000  0.000000
                       0.000000  0.000000  0.000000  0.000000  0.000000  0.000000
                       0.000000  0.000000  0.000000  0.000000  0.000000  0.000000
                       0.000000  0.000000  0.000000  0.000000  0.000000  0.000000
                       0.000000  0.000000  0.000000  0.000000  0.000000  0.000000
                       0.000000  0.000000  0.000000  0.000000  0.000000  0.000000
                       0.000000  0.000000  0.000000  0.000000  0.000000  0.000000
                       0.000000  0.000000  0.000000  0.000000  0.000000  0.000000
                       0.000000  0.000000  0.000000  0.000000  0.000000  0.000000
                       0.000000  0.000000  0.000000  0.000000  0.000000  0.000000
                       0.000000  0.000000  0.000000  0.000000  0.000000  0.000000
                       0.000000  0.000000  0.000000  0.000000  0.000000  0.000000
                       0.000000  0.000000  0.000000  0.000000  0.000000  0.000000
                       0.000000  0.000000  0.000000  0.000000  0.000000  0.000000
                       0.000000  0.000000  0.000000  0.000000  0.000000  0.000000
                       0.000000  0.000000  0.000000  0.000000  0.000000  0.000000
                       0.000000  0.000000  0.000000  0.000000  0.000000  0.000000
                       0.000000  0.000000  0.000000  0.000000  0.000000  0.000000
                       0.000000  0.000000  0.000000  0.000000  0.000000  0.000000
                       0.000000  0.000000  0.000000  0.000000  0.000000  0.000000
                       0.000000  0.000000  0.000000  0.000000  0.000000  0.000000
                       0.000000  0.000000  0.000000  0.000000  0.000000  0.000000
                       0.000000  0.000000  0.000000  0.000000  0.000000  0.000000
                       0.000000  0.000000  0.000000  0.000000  0.000000  0.000000
                       0.000000  0.000000  0.000000  0.000000  0.000000  0.000000
                       0.000000  0.000000  0.000000  0.000000  0.000000  0.000000
                       0.000000  0.000000  0.000000  0.000000  0.000000  0.000000
                       0.000000  0.000000  0.000000  0.000000  0.000000  0.000000
                       0.000000  0.000000  0.000000  0.000000  0.000000  0.000000
                       0.000000  0.000000  0.000000  0.000000  0.000000  0.000000
                       0.000000  0.000000  0.000000  0.000000  0.000000  0.000000
                       0.000000  0.000000  0.000000  0.000000  0.000000  0.000000
                       0.000000  0.000000  0.000000  0.000000  0.000000  0.000000
                       0.000000  0.000000  0.000000  0.000000  0.000000  0.000000
                       0.000000  0.000000  0.000000  0.000000  0.000000  0.000000
                       0.000000  0.000000  0.000000  0.000000  0.000000  0.000000
                       0.000000  0.000000  0.000000  0.000000  0.000000  0.000000
                       0.000000  0.000000  0.000000  0.000000  0.000000  0.000000
                       0.000000  0.000000  0.000000  0.000000  0.000000  0.000000
                       0.000000  0.000000  0.000000  0.000000  0.000000  0.000000
                       0.000000  0.000000  0.000000  0.000000  0.000000  0.000000
                       0.000000  0.000000  0.000000  0.000000  0.000000  0.000000
                       0.000000  0.000000  0.000000  0.000000  0.000000  0.000000
                       0.000000  0.000000  0.000000  0.000000  0.000000  0.000000
                       0.000000  0.000000  0.000000  0.000000  0.000000  0.000000
                       0.000000  0.000000  0.000000  0.000000  0.000000  0.000000
                       0.000000  0.000000  0.000000  0.000000  0.000000  0.000000
                       0.000000  0.000000  0.000000  0.000000  0.000000  0.000000
                       0.000000  0.000000  0.000000  0.000000  0.000000  0.000000
                       0.000000  0.000000  0.000000  0.000000  0.000000  0.000000
                       0.000000  0.000000  0.000000  0.000000  0.000000  0.000000
                       0.000000  0.000000  0.000000  0.000000  0.000000  0.000000
                       0.000000  0.000000  0.000000  0.000000  0.000000  0.000000
                       0.000000  0.000000  0.000000  0.000000  0.000000  0.000000
                       0.000000  0.000000  0.000000  0.000000  0.000000  0.000000
                       0.000000  0.000000  0.000000  0.000000  0.000000  0.000000
                       0.000000  0.000000  0.000000  0.000000  0.000000  0.000000
                       0.000000  0.000000  0.000000  0.000000  0.000000  0.000000
                       0.000000  0.000000  0.000000  0.000000  0.000000  0.000000
                       0.000000  0.000000  0.000000  0.000000  0.000000  0.000000
                       0.000000  0.000000  0.000000  0.000000  0.000000  0.000000
                       0.000000  0.000000  0.000000  0.000000  0.000000  0.000000
                       0.000000  0.000000  0.000000  0.000000  0.000000  0.000000
                       0.000000  0.000000  0.000000  0.000000  0.000000  0.000000
                       0.000000  0.000000  0.000000  0.000000  0.000000  0.000000
                       0.000000  0.000000  0.000000  0.000000  0.000000  0.000000
                       0.000000  0.000000  0.000000  0.000000  0.000000  0.000000
                       0.000000  0.000000  0.000000  0.000000  0.000000  0.000000
                       0.000000  0.000000  0.000000  0.000000  0.000000  0.000000
                       0.000000  0.000000  0.000000  0.000000  0.000000  0.000000
                       0.000000  0.000000  0.000000  0.000000  0.000000  0.000000
                       0.000000  0.000000  0.000000  0.000000  0.000000  0.000000
                       0.000000  0.000000  0.000000  0.000000  0.000000  0.000000
                       0.000000  0.000000  0.000000  0.000000  0.000000  0.000000
                       0.000000  0.000000  0.000000  0.000000  0.000000  0.000000
                       0.000000  0.000000  0.000000  0.000000  0.000000  0.000000
                       0.000000  0.000000  0.000000  0.000000  0.000000  0.000000
                       0.000000  0.000000  0.000000  0.000000  0.000000  0.000000
                       0.000000  0.000000  0.000000  0.000000  0.000000  0.000000
                       0.000000  0.000000  0.000000  0.000000  0.000000  0.000000
                       0.000000  0.000000  0.000000  0.000000  0.000000  0.000000
                       0.000000  0.000000  0.000000  0.000000  0.000000  0.000000
                       0.000000  0.000000  0.000000  0.000000  0.000000  0.000000
                       0.000000  0.000000  0.000000  0.000000  0.000000  0.000000
                       0.000000  0.000000  0.000000  0.000000  0.000000  0.000000
                       0.000000  0.000000  0.000000  0.000000  0.000000  0.000000
                       0.000000  0.000000  0.000000  0.000000  0.000000  0.000000
                       0.000000  0.000000  0.000000  0.000000  0.000000  0.000000
                       0.000000  0.000000  0.000000  0.000000  0.000000  0.000000
                       0.000000  0.000000  0.000000  0.000000  0.000000  0.000000
                       0.000000  0.000000  0.000000  0.000000  0.000000  0.000000
                       0.000000  0.000000  0.000000  0.000000  0.000000  0.000000
                       0.000000  0.000000  0.000000  0.000000  0.000000  0.000000
                       0.000000  0.000000  0.000000  0.000000  0.000000  0.000000
                       0.000000  0.000000  0.000000  0.000000  0.000000  0.000000
                       0.000000  0.000000  0.000000  0.000000  0.000000  0.000000
                       0.000000  0.000000  0.000000  0.000000  0.000000  0.000000
                       0.000000  0.000000  0.000000  0.000000  0.000000  0.000000
                       0.000000  0.000000  0.000000  0.000000  0.000000  0.000000
                       0.000000  0.000000  0.000000  0.000000  0.000000  0.000000
                       0.000000  0.000000  0.000000  0.000000  0.000000  0.000000
                       0.000000  0.000000  0.000000  0.000000  0.000000  0.000000
                       0.000000  0.000000  0.000000  0.000000  0.000000  0.000000
                       0.000000  0.000000  0.000000  0.000000  0.000000  0.000000
                       0.000000  0.000000  0.000000  0.000000  0.000000  0.000000
                       0.000000  0.000000  0.000000  0.000000  0.000000  0.000000
                       0.000000  0.000000  0.000000  0.000000  0.000000  0.000000
                       0.000000  0.000000  0.000000  0.000000  0.000000  0.000000
                       0.000000  0.000000  0.000000  0.000000  0.000000  0.000000
                       0.000000  0.000000  0.000000  0.000000  0.000000  0.000000
                       0.000000  0.000000  0.000000  0.000000  0.000000  0.000000
                       0.000000  0.000000  0.000000  0.000000  0.000000  0.000000
                       0.000000  0.000000  0.000000  0.000000  0.000000  0.000000
                       0.000000  0.000000  0.000000  0.000000  0.000000  0.000000
                       0.000000  0.000000  0.000000  0.000000  0.000000  0.000000
                       0.000000  0.000000  0.000000  0.000000  0.000000  0.000000
                       0.000000  0.000000  0.000000  0.000000  0.000000  0.000000
                       0.000000  0.000000  0.000000  0.000000  0.000000  0.000000
                       0.000000  0.000000  0.000000  0.000000  0.000000  0.000000
                       0.000000  0.000000  0.000000  0.000000  0.000000  0.000000
                       0.000000  0.000000  0.000000  0.000000  0.000000  0.000000
                       0.000000  0.000000  0.000000  0.000000  0.000000  0.000000
                       0.000000  0.000000  0.000000  0.000000  0.000000  0.000000
                       0.000000  0.000000  0.000000  0.000000  0.000000  0.000000
                       0.000000  0.000000  0.000000  0.000000  0.000000  0.000000
                       0.000000  0.000000  0.000000  0.000000  0.000000  0.000000
                       0.000000  0.000000  0.000000  0.000000
        optdriver           4
            rprim      5.7735026919E-01  0.0000000000E+00  8.1649658093E-01
                      -2.8867513459E-01  5.0000000000E-01  8.1649658093E-01
                      -2.8867513459E-01 -5.0000000000E-01  8.1649658093E-01
          spgroup         225
           symrel      1  0  0   0  1  0   0  0  1      -1  0  0   0 -1  0   0  0 -1
                       0 -1  1   0 -1  0   1 -1  0       0  1 -1   0  1  0  -1  1  0
                      -1  0  0  -1  0  1  -1  1  0       1  0  0   1  0 -1   1 -1  0
                       0  1 -1   1  0 -1   0  0 -1       0 -1  1  -1  0  1   0  0  1
                      -1  0  0  -1  1  0  -1  0  1       1  0  0   1 -1  0   1  0 -1
                       0 -1  1   1 -1  0   0 -1  0       0  1 -1  -1  1  0   0  1  0
                       1  0  0   0  0  1   0  1  0      -1  0  0   0  0 -1   0 -1  0
                       0  1 -1   0  0 -1   1  0 -1       0 -1  1   0  0  1  -1  0  1
                      -1  0  1  -1  1  0  -1  0  0       1  0 -1   1 -1  0   1  0  0
                       0 -1  0   1 -1  0   0 -1  1       0  1  0  -1  1  0   0  1 -1
                       1  0 -1   0  0 -1   0  1 -1      -1  0  1   0  0  1   0 -1  1
                       0  1  0   0  0  1   1  0  0       0 -1  0   0  0 -1  -1  0  0
                       1  0 -1   0  1 -1   0  0 -1      -1  0  1   0 -1  1   0  0  1
                       0 -1  0   0 -1  1   1 -1  0       0  1  0   0  1 -1  -1  1  0
                      -1  0  1  -1  0  0  -1  1  0       1  0 -1   1  0  0   1 -1  0
                       0  1  0   1  0  0   0  0  1       0 -1  0  -1  0  0   0  0 -1
                       0  0 -1   0  1 -1   1  0 -1       0  0  1   0 -1  1  -1  0  1
                       1 -1  0   0 -1  1   0 -1  0      -1  1  0   0  1 -1   0  1  0
                       0  0  1   1  0  0   0  1  0       0  0 -1  -1  0  0   0 -1  0
                      -1  1  0  -1  0  0  -1  0  1       1 -1  0   1  0  0   1  0 -1
                       0  0  1   0  1  0   1  0  0       0  0 -1   0 -1  0  -1  0  0
                       1 -1  0   0 -1  0   0 -1  1      -1  1  0   0  1  0   0  1 -1
                       0  0 -1   1  0 -1   0  1 -1       0  0  1  -1  0  1   0 -1  1
                      -1  1  0  -1  0  1  -1  0  0       1 -1  0   1  0 -1   1  0  0
           timopt          -1
            typat      1  2  2
              wtk        0.00195    0.01563    0.01563    0.01563    0.00781    0.01172
                         0.04688    0.04688    0.04688    0.04688    0.04688    0.02344
                         0.01172    0.04688    0.04688    0.04688    0.02344    0.01172
                         0.04688    0.02344    0.00586    0.04688    0.09375    0.04688
                         0.04688    0.09375    0.04688    0.02344    0.01172
           xangst      0.0000000000E+00  0.0000000000E+00  0.0000000000E+00
                       0.0000000000E+00  0.0000000000E+00  2.1960158597E+00
                       0.0000000000E+00  0.0000000000E+00  6.5880475791E+00
            xcart      0.0000000000E+00  0.0000000000E+00  0.0000000000E+00
                       0.0000000000E+00  0.0000000000E+00  4.1498685583E+00
                       0.0000000000E+00  0.0000000000E+00  1.2449605675E+01
             xred      0.0000000000E+00  0.0000000000E+00  0.0000000000E+00
                       2.5000000000E-01  2.5000000000E-01  2.5000000000E-01
                       7.5000000000E-01  7.5000000000E-01  7.5000000000E-01
            znucl       40.00000    8.00000
 
================================================================================
 
 chkinp: Checking input parameters for consistency, jdtset=   4.
 
================================================================================
== DATASET  4 ==================================================================
-   mpi_nproc: 24, omp_nthreads: -1 (-1 if OMP is not activated)
 

--- !DatasetInfo
iteration_state: {dtset: 4, }
dimensions: {natom: 3, nkpt: 29, mband: 1024, nsppol: 1, nspinor: 1, nspden: 1, mpw: 3218, }
cutoff_energies: {ecut:  45.0, pawecutdg:  -1.0, }
electrons: {nelect:   2.40000000E+01, charge:   0.00000000E+00, occopt:   1.00000000E+00, tsmear:   1.00000000E-02, }
meta: {optdriver: 4, gwcalctyp: 0, }
...

 mkfilename : getwfk/=0, take file _WFK from output of DATASET   2.
 
 mkfilename : getscr/=0, take file _SCR from output of DATASET   3.
 
 Exchange-correlation functional for the present dataset will be:
  GGA: Perdew-Burke-Ernzerhof functional - ixc=11
 Citation for XC functional:
  J.P.Perdew, K.Burke, M.Ernzerhof, PRL 77, 3865 (1996)
 
 SIGMA: Calculation of the GW corrections 
 
 Based on a program developped by R.W. Godby, V. Olevano, G. Onida, and L. Reining.
 Incorporated in ABINIT by V. Olevano, G.-M. Rignanese, and M. Torrent.
.Using single precision arithmetic ; gwpc =  4
 
 Real(R)+Recip(G) space primitive vectors, cartesian coordinates (Bohr,Bohr^-1):
 R(1)=  3.9125336  0.0000000  5.5331581  G(1)=  0.1703926  0.0000000  0.0602429
 R(2)= -1.9562668  3.3883535  5.5331581  G(2)= -0.0851963  0.1475643  0.0602429
 R(3)= -1.9562668 -3.3883535  5.5331581  G(3)= -0.0851963 -0.1475643  0.0602429
 Unit cell volume ucvol=  2.2006001E+02 bohr^3
 Angles (23,13,12)=  6.00000000E+01  6.00000000E+01  6.00000000E+01 degrees
 
--- Pseudopotential description ------------------------------------------------
- pspini: atom type   1  psp file is ./Zr-sp.psp8
- pspatm: opening atomic psp file    ./Zr-sp.psp8
- Zr    ONCVPSP-3.2.3.1  r_core=   1.56507   1.56507   1.51006
- 40.00000  12.00000    170510                znucl, zion, pspdat
    8   11    2    4       600   0.00000      pspcod,pspxc,lmax,lloc,mmax,r2well
    5.99000000000000    5.00000000000000    0.00000000000000   rchrg,fchrg,qchrg
     nproj     2     2     2
     extension_switch     1
  pspatm : epsatm=   18.79873988
         --- l  ekb(1:nproj) -->
             0   10.621766    0.898805
             1    5.849837    0.750341
             2    1.531478    0.503023
 pspatm: atomic psp has been read  and splines computed
 
- pspini: atom type   2  psp file is ./O.psp8
- pspatm: opening atomic psp file    ./O.psp8
- O     ONCVPSP-3.2.3.1  r_core=   1.35509   1.45563   1.26150
-  8.00000   6.00000    170504                znucl, zion, pspdat
    8   11    2    4       600   0.00000      pspcod,pspxc,lmax,lloc,mmax,r2well
    5.99000000000000    4.00000000000000    0.00000000000000   rchrg,fchrg,qchrg
     nproj     2     2     1
     extension_switch     1
  pspatm : epsatm=    6.19546011
         --- l  ekb(1:nproj) -->
             0    6.056735    0.824024
             1   -4.717130   -1.149271
             2   -1.331955
 pspatm: atomic psp has been read  and splines computed
 
   7.48551842E+02                                ecore*ucvol(ha*bohr**3)
--------------------------------------------------------------------------------
 
 ==== K-mesh for the wavefunctions ====
 Number of points in the irreducible wedge :    29
 Reduced coordinates and weights : 
 
     1)     0.00000000E+00  0.00000000E+00  0.00000000E+00       0.00195
     2)     1.25000000E-01  0.00000000E+00  0.00000000E+00       0.01563
     3)     2.50000000E-01  0.00000000E+00  0.00000000E+00       0.01563
     4)     3.75000000E-01  0.00000000E+00  0.00000000E+00       0.01563
     5)     5.00000000E-01  0.00000000E+00  0.00000000E+00       0.00781
     6)     1.25000000E-01  1.25000000E-01  0.00000000E+00       0.01172
     7)     2.50000000E-01  1.25000000E-01  0.00000000E+00       0.04688
     8)     3.75000000E-01  1.25000000E-01  0.00000000E+00       0.04688
     9)     5.00000000E-01  1.25000000E-01  0.00000000E+00       0.04688
    10)    -3.75000000E-01  1.25000000E-01  0.00000000E+00       0.04688
    11)    -2.50000000E-01  1.25000000E-01  0.00000000E+00       0.04688
    12)    -1.25000000E-01  1.25000000E-01  0.00000000E+00       0.02344
    13)     2.50000000E-01  2.50000000E-01  0.00000000E+00       0.01172
    14)     3.75000000E-01  2.50000000E-01  0.00000000E+00       0.04688
    15)     5.00000000E-01  2.50000000E-01  0.00000000E+00       0.04688
    16)    -3.75000000E-01  2.50000000E-01  0.00000000E+00       0.04688
    17)    -2.50000000E-01  2.50000000E-01  0.00000000E+00       0.02344
    18)     3.75000000E-01  3.75000000E-01  0.00000000E+00       0.01172
    19)     5.00000000E-01  3.75000000E-01  0.00000000E+00       0.04688
    20)    -3.75000000E-01  3.75000000E-01  0.00000000E+00       0.02344
    21)     5.00000000E-01  5.00000000E-01  0.00000000E+00       0.00586
    22)     3.75000000E-01  2.50000000E-01  1.25000000E-01       0.04688
    23)     5.00000000E-01  2.50000000E-01  1.25000000E-01       0.09375
    24)    -3.75000000E-01  2.50000000E-01  1.25000000E-01       0.04688
    25)     5.00000000E-01  3.75000000E-01  1.25000000E-01       0.04688
    26)    -3.75000000E-01  3.75000000E-01  1.25000000E-01       0.09375
    27)    -2.50000000E-01  3.75000000E-01  1.25000000E-01       0.04688
    28)    -3.75000000E-01  5.00000000E-01  1.25000000E-01       0.02344
    29)    -2.50000000E-01  5.00000000E-01  2.50000000E-01       0.01172
 
 Together with 48 symmetry operations and time-reversal symmetry 
 yields   512 points in the full Brillouin Zone.
 
 
 ==== Q-mesh for screening function ====
 Number of points in the irreducible wedge :    29
 Reduced coordinates and weights : 
 
     1)     0.00000000E+00  0.00000000E+00  0.00000000E+00       0.00195
     2)     1.25000000E-01  0.00000000E+00  0.00000000E+00       0.01563
     3)     2.50000000E-01  0.00000000E+00  0.00000000E+00       0.01563
     4)     3.75000000E-01  0.00000000E+00  0.00000000E+00       0.01563
     5)     5.00000000E-01  0.00000000E+00  0.00000000E+00       0.00781
     6)     1.25000000E-01  1.25000000E-01  0.00000000E+00       0.01172
     7)     2.50000000E-01  1.25000000E-01  0.00000000E+00       0.04688
     8)     3.75000000E-01  1.25000000E-01  0.00000000E+00       0.04688
     9)     5.00000000E-01  1.25000000E-01  0.00000000E+00       0.04688
    10)    -3.75000000E-01  1.25000000E-01  0.00000000E+00       0.04688
    11)    -2.50000000E-01  1.25000000E-01  0.00000000E+00       0.04688
    12)    -1.25000000E-01  1.25000000E-01  0.00000000E+00       0.02344
    13)     2.50000000E-01  2.50000000E-01  0.00000000E+00       0.01172
    14)     3.75000000E-01  2.50000000E-01  0.00000000E+00       0.04688
    15)     5.00000000E-01  2.50000000E-01  0.00000000E+00       0.04688
    16)    -3.75000000E-01  2.50000000E-01  0.00000000E+00       0.04688
    17)    -2.50000000E-01  2.50000000E-01  0.00000000E+00       0.02344
    18)     3.75000000E-01  3.75000000E-01  0.00000000E+00       0.01172
    19)     5.00000000E-01  3.75000000E-01  0.00000000E+00       0.04688
    20)    -3.75000000E-01  3.75000000E-01  0.00000000E+00       0.02344
    21)     5.00000000E-01  5.00000000E-01  0.00000000E+00       0.00586
    22)     3.75000000E-01  2.50000000E-01  1.25000000E-01       0.04688
    23)     5.00000000E-01  2.50000000E-01  1.25000000E-01       0.09375
    24)    -3.75000000E-01  2.50000000E-01  1.25000000E-01       0.04688
    25)     5.00000000E-01  3.75000000E-01  1.25000000E-01       0.04688
    26)    -3.75000000E-01  3.75000000E-01  1.25000000E-01       0.09375
    27)    -2.50000000E-01  3.75000000E-01  1.25000000E-01       0.04688
    28)    -3.75000000E-01  5.00000000E-01  1.25000000E-01       0.02344
    29)    -2.50000000E-01  5.00000000E-01  2.50000000E-01       0.01172
 
 Together with 48 symmetry operations and time-reversal symmetry 
 yields   512 points in the full Brillouin Zone.
 
 
 setmesh: FFT mesh size selected  =    45x   45x   45
          total number of points  =        91125
 
 Number of electrons calculated from density =   24.0000; Expected =   24.0000
 average of density, n =  0.109061
 r_s =    1.2984
 omega_plasma =   31.8560 [eV]
 
 
 === KS Band Gaps ===
  >>>> For spin  1
   Minimum direct gap =   3.8423 [eV], located at k-point      :   0.5000  0.5000  0.0000
   Fundamental gap    =   3.3967 [eV], Top of valence bands at :   0.5000  0.5000  0.0000
                                       Bottom of conduction at :   0.0000  0.0000  0.0000
 SIGMA fundamental parameters:
 PLASMON POLE MODEL  1
 number of plane-waves for SigmaX                 3143
 number of plane-waves for SigmaC and W            259
 number of plane-waves for wavefunctions          3143
 number of bands                                  1024
 number of independent spin polarizations            1
 number of spinorial components                      1
 number of k-points in IBZ                          29
 number of q-points in IBZ                          29
 number of symmetry operations                      48
 number of k-points in BZ                          512
 number of q-points in BZ                          512
 number of frequencies for dSigma/dE                 9
 frequency step for dSigma/dE [eV]                0.25
 number of omega for Sigma on real axis              0
 max omega for Sigma on real axis  [eV]           0.00
 zcut for avoiding poles [eV]                     0.10
 
 EPSILON^-1 parameters (SCR file):
 dimension of the eps^-1 matrix on file            259
 dimension of the eps^-1 matrix used               259
 number of plane-waves for wavefunctions          3143
 number of bands                                  1024
 number of q-points in IBZ                          29
 number of frequencies                               2
 number of real frequencies                          1
 number of imag frequencies                          1
 
 matrix elements of self-energy operator (all in [eV])
 
 Perturbative Calculation

--- !SelfEnergy_ee
iteration_state: {dtset: 4, }
kpoint     : [   0.000,    0.000,    0.000, ]
spin       : 1
KS_gap     :    3.931
QP_gap     :    5.346
Delta_QP_KS:    1.414
data: !SigmaeeData |
     Band     E0 <VxcDFT>   SigX SigC(E0)      Z dSigC/dE  Sig(E)    E-E0       E
       10   8.009 -20.177 -25.205   4.094   0.786  -0.272 -20.911  -0.734   7.274
       11   8.009 -20.177 -25.205   4.094   0.786  -0.272 -20.911  -0.734   7.274
       12   8.009 -20.177 -25.205   4.094   0.786  -0.272 -20.911  -0.734   7.274
       13  11.940 -14.647  -8.358  -5.470   0.831  -0.204 -13.967   0.680  12.620
       14  11.940 -14.647  -8.358  -5.470   0.831  -0.204 -13.967   0.680  12.620
...


--- !SelfEnergy_ee
iteration_state: {dtset: 4, }
kpoint     : [   0.500,    0.500,    0.000, ]
spin       : 1
KS_gap     :    3.842
QP_gap     :    5.137
Delta_QP_KS:    1.295
data: !SigmaeeData |
     Band     E0 <VxcDFT>   SigX SigC(E0)      Z dSigC/dE  Sig(E)    E-E0       E
       12   8.543 -20.887 -25.759   4.061   0.785  -0.274 -21.524  -0.637   7.906
       13  12.386 -15.170  -9.410  -4.960   0.823  -0.215 -14.512   0.658  13.044
...


--- !SelfEnergy_ee
iteration_state: {dtset: 4, }
kpoint     : [   0.500,    0.000,    0.000, ]
spin       : 1
KS_gap     :    5.693
QP_gap     :    7.310
Delta_QP_KS:    1.617
data: !SigmaeeData |
     Band     E0 <VxcDFT>   SigX SigC(E0)      Z dSigC/dE  Sig(E)    E-E0       E
       11   6.898 -19.505 -24.909   4.307   0.783  -0.277 -20.365  -0.859   6.038
       12   6.898 -19.505 -24.909   4.307   0.783  -0.277 -20.365  -0.859   6.038
       13  12.591 -15.194  -8.641  -5.635   0.826  -0.211 -14.436   0.758  13.349
       14  12.591 -15.194  -8.641  -5.635   0.826  -0.211 -14.436   0.758  13.349
...

 
== END DATASET(S) ==============================================================
================================================================================
  
 -outvars: echo values of variables after computation  --------
            acell      6.7767069783E+00  6.7767069783E+00  6.7767069783E+00 Bohr
              amu      9.12240000E+01  1.59994000E+01
        autoparal           1
             bdgw          12      13      12      13      12      13
           diemac      1.20000000E+01
             ecut      4.50000000E+01 Hartree
         ecutsigx      4.50000000E+01 Hartree
          ecutwfn      4.50000000E+01 Hartree
           etotal4     0.0000000000E+00
            fcart4     0.0000000000E+00  0.0000000000E+00  0.0000000000E+00
                       0.0000000000E+00  0.0000000000E+00  0.0000000000E+00
                       0.0000000000E+00  0.0000000000E+00  0.0000000000E+00
-          fftalg         512
           getscr           3
           getwfk           2
           istwfk        1    0    0    0    1    0    0    0    0    0
                         0    0    0    0    0    0    0    0    0    0
                         1    0    0    0    0    0    0    0    0
              ixc          11
           jdtset        4
              kpt      0.00000000E+00  0.00000000E+00  0.00000000E+00
                       1.25000000E-01  0.00000000E+00  0.00000000E+00
                       2.50000000E-01  0.00000000E+00  0.00000000E+00
                       3.75000000E-01  0.00000000E+00  0.00000000E+00
                       5.00000000E-01  0.00000000E+00  0.00000000E+00
                       1.25000000E-01  1.25000000E-01  0.00000000E+00
                       2.50000000E-01  1.25000000E-01  0.00000000E+00
                       3.75000000E-01  1.25000000E-01  0.00000000E+00
                       5.00000000E-01  1.25000000E-01  0.00000000E+00
                      -3.75000000E-01  1.25000000E-01  0.00000000E+00
                      -2.50000000E-01  1.25000000E-01  0.00000000E+00
                      -1.25000000E-01  1.25000000E-01  0.00000000E+00
                       2.50000000E-01  2.50000000E-01  0.00000000E+00
                       3.75000000E-01  2.50000000E-01  0.00000000E+00
                       5.00000000E-01  2.50000000E-01  0.00000000E+00
                      -3.75000000E-01  2.50000000E-01  0.00000000E+00
                      -2.50000000E-01  2.50000000E-01  0.00000000E+00
                       3.75000000E-01  3.75000000E-01  0.00000000E+00
                       5.00000000E-01  3.75000000E-01  0.00000000E+00
                      -3.75000000E-01  3.75000000E-01  0.00000000E+00
                       5.00000000E-01  5.00000000E-01  0.00000000E+00
                       3.75000000E-01  2.50000000E-01  1.25000000E-01
                       5.00000000E-01  2.50000000E-01  1.25000000E-01
                      -3.75000000E-01  2.50000000E-01  1.25000000E-01
                       5.00000000E-01  3.75000000E-01  1.25000000E-01
                      -3.75000000E-01  3.75000000E-01  1.25000000E-01
                      -2.50000000E-01  3.75000000E-01  1.25000000E-01
                      -3.75000000E-01  5.00000000E-01  1.25000000E-01
                      -2.50000000E-01  5.00000000E-01  2.50000000E-01
            kptgw      0.00000000E+00  0.00000000E+00  0.00000000E+00
                       5.00000000E-01  5.00000000E-01  0.00000000E+00
                       5.00000000E-01  0.00000000E+00  0.00000000E+00
         kptrlatt        8    0    0      0    8    0      0    0    8
          kptrlen      5.42136558E+01
P           mkmem           2
            natom           3
            nband        1024
           ndtset           1
            ngfft          45      45      45
             nkpt          29
           nkptgw           3
          npwsigx        3143
           npwwfn        3143
            nstep         150
             nsym          48
           ntypat           2
              occ      2.000000  2.000000  2.000000  2.000000  2.000000  2.000000
                       2.000000  2.000000  2.000000  2.000000  2.000000  2.000000
                       0.000000  0.000000  0.000000  0.000000  0.000000  0.000000
                       0.000000  0.000000  0.000000  0.000000  0.000000  0.000000
                       0.000000  0.000000  0.000000  0.000000  0.000000  0.000000
                       0.000000  0.000000  0.000000  0.000000  0.000000  0.000000
                       0.000000  0.000000  0.000000  0.000000  0.000000  0.000000
                       0.000000  0.000000  0.000000  0.000000  0.000000  0.000000
                       0.000000  0.000000  0.000000  0.000000  0.000000  0.000000
                       0.000000  0.000000  0.000000  0.000000  0.000000  0.000000
                       0.000000  0.000000  0.000000  0.000000  0.000000  0.000000
                       0.000000  0.000000  0.000000  0.000000  0.000000  0.000000
                       0.000000  0.000000  0.000000  0.000000  0.000000  0.000000
                       0.000000  0.000000  0.000000  0.000000  0.000000  0.000000
                       0.000000  0.000000  0.000000  0.000000  0.000000  0.000000
                       0.000000  0.000000  0.000000  0.000000  0.000000  0.000000
                       0.000000  0.000000  0.000000  0.000000  0.000000  0.000000
                       0.000000  0.000000  0.000000  0.000000  0.000000  0.000000
                       0.000000  0.000000  0.000000  0.000000  0.000000  0.000000
                       0.000000  0.000000  0.000000  0.000000  0.000000  0.000000
                       0.000000  0.000000  0.000000  0.000000  0.000000  0.000000
                       0.000000  0.000000  0.000000  0.000000  0.000000  0.000000
                       0.000000  0.000000  0.000000  0.000000  0.000000  0.000000
                       0.000000  0.000000  0.000000  0.000000  0.000000  0.000000
                       0.000000  0.000000  0.000000  0.000000  0.000000  0.000000
                       0.000000  0.000000  0.000000  0.000000  0.000000  0.000000
                       0.000000  0.000000  0.000000  0.000000  0.000000  0.000000
                       0.000000  0.000000  0.000000  0.000000  0.000000  0.000000
                       0.000000  0.000000  0.000000  0.000000  0.000000  0.000000
                       0.000000  0.000000  0.000000  0.000000  0.000000  0.000000
                       0.000000  0.000000  0.000000  0.000000  0.000000  0.000000
                       0.000000  0.000000  0.000000  0.000000  0.000000  0.000000
                       0.000000  0.000000  0.000000  0.000000  0.000000  0.000000
                       0.000000  0.000000  0.000000  0.000000  0.000000  0.000000
                       0.000000  0.000000  0.000000  0.000000  0.000000  0.000000
                       0.000000  0.000000  0.000000  0.000000  0.000000  0.000000
                       0.000000  0.000000  0.000000  0.000000  0.000000  0.000000
                       0.000000  0.000000  0.000000  0.000000  0.000000  0.000000
                       0.000000  0.000000  0.000000  0.000000  0.000000  0.000000
                       0.000000  0.000000  0.000000  0.000000  0.000000  0.000000
                       0.000000  0.000000  0.000000  0.000000  0.000000  0.000000
                       0.000000  0.000000  0.000000  0.000000  0.000000  0.000000
                       0.000000  0.000000  0.000000  0.000000  0.000000  0.000000
                       0.000000  0.000000  0.000000  0.000000  0.000000  0.000000
                       0.000000  0.000000  0.000000  0.000000  0.000000  0.000000
                       0.000000  0.000000  0.000000  0.000000  0.000000  0.000000
                       0.000000  0.000000  0.000000  0.000000  0.000000  0.000000
                       0.000000  0.000000  0.000000  0.000000  0.000000  0.000000
                       0.000000  0.000000  0.000000  0.000000  0.000000  0.000000
                       0.000000  0.000000  0.000000  0.000000  0.000000  0.000000
                       0.000000  0.000000  0.000000  0.000000  0.000000  0.000000
                       0.000000  0.000000  0.000000  0.000000  0.000000  0.000000
                       0.000000  0.000000  0.000000  0.000000  0.000000  0.000000
                       0.000000  0.000000  0.000000  0.000000  0.000000  0.000000
                       0.000000  0.000000  0.000000  0.000000  0.000000  0.000000
                       0.000000  0.000000  0.000000  0.000000  0.000000  0.000000
                       0.000000  0.000000  0.000000  0.000000  0.000000  0.000000
                       0.000000  0.000000  0.000000  0.000000  0.000000  0.000000
                       0.000000  0.000000  0.000000  0.000000  0.000000  0.000000
                       0.000000  0.000000  0.000000  0.000000  0.000000  0.000000
                       0.000000  0.000000  0.000000  0.000000  0.000000  0.000000
                       0.000000  0.000000  0.000000  0.000000  0.000000  0.000000
                       0.000000  0.000000  0.000000  0.000000  0.000000  0.000000
                       0.000000  0.000000  0.000000  0.000000  0.000000  0.000000
                       0.000000  0.000000  0.000000  0.000000  0.000000  0.000000
                       0.000000  0.000000  0.000000  0.000000  0.000000  0.000000
                       0.000000  0.000000  0.000000  0.000000  0.000000  0.000000
                       0.000000  0.000000  0.000000  0.000000  0.000000  0.000000
                       0.000000  0.000000  0.000000  0.000000  0.000000  0.000000
                       0.000000  0.000000  0.000000  0.000000  0.000000  0.000000
                       0.000000  0.000000  0.000000  0.000000  0.000000  0.000000
                       0.000000  0.000000  0.000000  0.000000  0.000000  0.000000
                       0.000000  0.000000  0.000000  0.000000  0.000000  0.000000
                       0.000000  0.000000  0.000000  0.000000  0.000000  0.000000
                       0.000000  0.000000  0.000000  0.000000  0.000000  0.000000
                       0.000000  0.000000  0.000000  0.000000  0.000000  0.000000
                       0.000000  0.000000  0.000000  0.000000  0.000000  0.000000
                       0.000000  0.000000  0.000000  0.000000  0.000000  0.000000
                       0.000000  0.000000  0.000000  0.000000  0.000000  0.000000
                       0.000000  0.000000  0.000000  0.000000  0.000000  0.000000
                       0.000000  0.000000  0.000000  0.000000  0.000000  0.000000
                       0.000000  0.000000  0.000000  0.000000  0.000000  0.000000
                       0.000000  0.000000  0.000000  0.000000  0.000000  0.000000
                       0.000000  0.000000  0.000000  0.000000  0.000000  0.000000
                       0.000000  0.000000  0.000000  0.000000  0.000000  0.000000
                       0.000000  0.000000  0.000000  0.000000  0.000000  0.000000
                       0.000000  0.000000  0.000000  0.000000  0.000000  0.000000
                       0.000000  0.000000  0.000000  0.000000  0.000000  0.000000
                       0.000000  0.000000  0.000000  0.000000  0.000000  0.000000
                       0.000000  0.000000  0.000000  0.000000  0.000000  0.000000
                       0.000000  0.000000  0.000000  0.000000  0.000000  0.000000
                       0.000000  0.000000  0.000000  0.000000  0.000000  0.000000
                       0.000000  0.000000  0.000000  0.000000  0.000000  0.000000
                       0.000000  0.000000  0.000000  0.000000  0.000000  0.000000
                       0.000000  0.000000  0.000000  0.000000  0.000000  0.000000
                       0.000000  0.000000  0.000000  0.000000  0.000000  0.000000
                       0.000000  0.000000  0.000000  0.000000  0.000000  0.000000
                       0.000000  0.000000  0.000000  0.000000  0.000000  0.000000
                       0.000000  0.000000  0.000000  0.000000  0.000000  0.000000
                       0.000000  0.000000  0.000000  0.000000  0.000000  0.000000
                       0.000000  0.000000  0.000000  0.000000  0.000000  0.000000
                       0.000000  0.000000  0.000000  0.000000  0.000000  0.000000
                       0.000000  0.000000  0.000000  0.000000  0.000000  0.000000
                       0.000000  0.000000  0.000000  0.000000  0.000000  0.000000
                       0.000000  0.000000  0.000000  0.000000  0.000000  0.000000
                       0.000000  0.000000  0.000000  0.000000  0.000000  0.000000
                       0.000000  0.000000  0.000000  0.000000  0.000000  0.000000
                       0.000000  0.000000  0.000000  0.000000  0.000000  0.000000
                       0.000000  0.000000  0.000000  0.000000  0.000000  0.000000
                       0.000000  0.000000  0.000000  0.000000  0.000000  0.000000
                       0.000000  0.000000  0.000000  0.000000  0.000000  0.000000
                       0.000000  0.000000  0.000000  0.000000  0.000000  0.000000
                       0.000000  0.000000  0.000000  0.000000  0.000000  0.000000
                       0.000000  0.000000  0.000000  0.000000  0.000000  0.000000
                       0.000000  0.000000  0.000000  0.000000  0.000000  0.000000
                       0.000000  0.000000  0.000000  0.000000  0.000000  0.000000
                       0.000000  0.000000  0.000000  0.000000  0.000000  0.000000
                       0.000000  0.000000  0.000000  0.000000  0.000000  0.000000
                       0.000000  0.000000  0.000000  0.000000  0.000000  0.000000
                       0.000000  0.000000  0.000000  0.000000  0.000000  0.000000
                       0.000000  0.000000  0.000000  0.000000  0.000000  0.000000
                       0.000000  0.000000  0.000000  0.000000  0.000000  0.000000
                       0.000000  0.000000  0.000000  0.000000  0.000000  0.000000
                       0.000000  0.000000  0.000000  0.000000  0.000000  0.000000
                       0.000000  0.000000  0.000000  0.000000  0.000000  0.000000
                       0.000000  0.000000  0.000000  0.000000  0.000000  0.000000
                       0.000000  0.000000  0.000000  0.000000  0.000000  0.000000
                       0.000000  0.000000  0.000000  0.000000  0.000000  0.000000
                       0.000000  0.000000  0.000000  0.000000  0.000000  0.000000
                       0.000000  0.000000  0.000000  0.000000  0.000000  0.000000
                       0.000000  0.000000  0.000000  0.000000  0.000000  0.000000
                       0.000000  0.000000  0.000000  0.000000  0.000000  0.000000
                       0.000000  0.000000  0.000000  0.000000  0.000000  0.000000
                       0.000000  0.000000  0.000000  0.000000  0.000000  0.000000
                       0.000000  0.000000  0.000000  0.000000  0.000000  0.000000
                       0.000000  0.000000  0.000000  0.000000  0.000000  0.000000
                       0.000000  0.000000  0.000000  0.000000  0.000000  0.000000
                       0.000000  0.000000  0.000000  0.000000  0.000000  0.000000
                       0.000000  0.000000  0.000000  0.000000  0.000000  0.000000
                       0.000000  0.000000  0.000000  0.000000  0.000000  0.000000
                       0.000000  0.000000  0.000000  0.000000  0.000000  0.000000
                       0.000000  0.000000  0.000000  0.000000  0.000000  0.000000
                       0.000000  0.000000  0.000000  0.000000  0.000000  0.000000
                       0.000000  0.000000  0.000000  0.000000  0.000000  0.000000
                       0.000000  0.000000  0.000000  0.000000  0.000000  0.000000
                       0.000000  0.000000  0.000000  0.000000  0.000000  0.000000
                       0.000000  0.000000  0.000000  0.000000  0.000000  0.000000
                       0.000000  0.000000  0.000000  0.000000  0.000000  0.000000
                       0.000000  0.000000  0.000000  0.000000  0.000000  0.000000
                       0.000000  0.000000  0.000000  0.000000  0.000000  0.000000
                       0.000000  0.000000  0.000000  0.000000  0.000000  0.000000
                       0.000000  0.000000  0.000000  0.000000  0.000000  0.000000
                       0.000000  0.000000  0.000000  0.000000  0.000000  0.000000
                       0.000000  0.000000  0.000000  0.000000  0.000000  0.000000
                       0.000000  0.000000  0.000000  0.000000  0.000000  0.000000
                       0.000000  0.000000  0.000000  0.000000  0.000000  0.000000
                       0.000000  0.000000  0.000000  0.000000  0.000000  0.000000
                       0.000000  0.000000  0.000000  0.000000  0.000000  0.000000
                       0.000000  0.000000  0.000000  0.000000  0.000000  0.000000
                       0.000000  0.000000  0.000000  0.000000  0.000000  0.000000
                       0.000000  0.000000  0.000000  0.000000  0.000000  0.000000
                       0.000000  0.000000  0.000000  0.000000  0.000000  0.000000
                       0.000000  0.000000  0.000000  0.000000  0.000000  0.000000
                       0.000000  0.000000  0.000000  0.000000  0.000000  0.000000
                       0.000000  0.000000  0.000000  0.000000  0.000000  0.000000
                       0.000000  0.000000  0.000000  0.000000  0.000000  0.000000
                       0.000000  0.000000  0.000000  0.000000  0.000000  0.000000
                       0.000000  0.000000  0.000000  0.000000  0.000000  0.000000
                       0.000000  0.000000  0.000000  0.000000  0.000000  0.000000
                       0.000000  0.000000  0.000000  0.000000  0.000000  0.000000
                       0.000000  0.000000  0.000000  0.000000
        optdriver           4
            rprim      5.7735026919E-01  0.0000000000E+00  8.1649658093E-01
                      -2.8867513459E-01  5.0000000000E-01  8.1649658093E-01
                      -2.8867513459E-01 -5.0000000000E-01  8.1649658093E-01
          spgroup         225
           strten4     0.0000000000E+00  0.0000000000E+00  0.0000000000E+00
                       0.0000000000E+00  0.0000000000E+00  0.0000000000E+00
           symrel      1  0  0   0  1  0   0  0  1      -1  0  0   0 -1  0   0  0 -1
                       0 -1  1   0 -1  0   1 -1  0       0  1 -1   0  1  0  -1  1  0
                      -1  0  0  -1  0  1  -1  1  0       1  0  0   1  0 -1   1 -1  0
                       0  1 -1   1  0 -1   0  0 -1       0 -1  1  -1  0  1   0  0  1
                      -1  0  0  -1  1  0  -1  0  1       1  0  0   1 -1  0   1  0 -1
                       0 -1  1   1 -1  0   0 -1  0       0  1 -1  -1  1  0   0  1  0
                       1  0  0   0  0  1   0  1  0      -1  0  0   0  0 -1   0 -1  0
                       0  1 -1   0  0 -1   1  0 -1       0 -1  1   0  0  1  -1  0  1
                      -1  0  1  -1  1  0  -1  0  0       1  0 -1   1 -1  0   1  0  0
                       0 -1  0   1 -1  0   0 -1  1       0  1  0  -1  1  0   0  1 -1
                       1  0 -1   0  0 -1   0  1 -1      -1  0  1   0  0  1   0 -1  1
                       0  1  0   0  0  1   1  0  0       0 -1  0   0  0 -1  -1  0  0
                       1  0 -1   0  1 -1   0  0 -1      -1  0  1   0 -1  1   0  0  1
                       0 -1  0   0 -1  1   1 -1  0       0  1  0   0  1 -1  -1  1  0
                      -1  0  1  -1  0  0  -1  1  0       1  0 -1   1  0  0   1 -1  0
                       0  1  0   1  0  0   0  0  1       0 -1  0  -1  0  0   0  0 -1
                       0  0 -1   0  1 -1   1  0 -1       0  0  1   0 -1  1  -1  0  1
                       1 -1  0   0 -1  1   0 -1  0      -1  1  0   0  1 -1   0  1  0
                       0  0  1   1  0  0   0  1  0       0  0 -1  -1  0  0   0 -1  0
                      -1  1  0  -1  0  0  -1  0  1       1 -1  0   1  0  0   1  0 -1
                       0  0  1   0  1  0   1  0  0       0  0 -1   0 -1  0  -1  0  0
                       1 -1  0   0 -1  0   0 -1  1      -1  1  0   0  1  0   0  1 -1
                       0  0 -1   1  0 -1   0  1 -1       0  0  1  -1  0  1   0 -1  1
                      -1  1  0  -1  0  1  -1  0  0       1 -1  0   1  0 -1   1  0  0
           timopt          -1
            typat      1  2  2
              wtk        0.00195    0.01563    0.01563    0.01563    0.00781    0.01172
                         0.04688    0.04688    0.04688    0.04688    0.04688    0.02344
                         0.01172    0.04688    0.04688    0.04688    0.02344    0.01172
                         0.04688    0.02344    0.00586    0.04688    0.09375    0.04688
                         0.04688    0.09375    0.04688    0.02344    0.01172
           xangst      0.0000000000E+00  0.0000000000E+00  0.0000000000E+00
                       0.0000000000E+00  0.0000000000E+00  2.1960158597E+00
                       0.0000000000E+00  0.0000000000E+00  6.5880475791E+00
            xcart      0.0000000000E+00  0.0000000000E+00  0.0000000000E+00
                       0.0000000000E+00  0.0000000000E+00  4.1498685583E+00
                       0.0000000000E+00  0.0000000000E+00  1.2449605675E+01
             xred      0.0000000000E+00  0.0000000000E+00  0.0000000000E+00
                       2.5000000000E-01  2.5000000000E-01  2.5000000000E-01
                       7.5000000000E-01  7.5000000000E-01  7.5000000000E-01
            znucl       40.00000    8.00000
 
================================================================================
 
 Test the timer : 
  a combined call timab(*,1,tsec) + timab(*,2,tsec) is 
- CPU time =    1.5874E-06 sec,    Wall time =    1.5957E-06 sec

- Total cpu        time (s,m,h):       2164.3       36.07      0.601
- Total wall clock time (s,m,h):       2230.7       37.18      0.620
-
- For major independent code sections, cpu and wall times (sec),
-  as well as % of the time and number of calls for node 0
-
-<BEGIN_TIMER mpi_nprocs = 24, omp_nthreads = 1, mpi_rank = 0>
- cpu_time =           82.6, wall_time =           93.3
-
- routine                            cpu     %          wall     %      number of calls Gflops    Speedup Efficacity
-                                                                        (-1=no count)
- sigma/=fourdp                    82.280   3.8        92.263   4.1              1      -1.00        0.89       0.89
- wfd_read_wfk                      3.501   0.2         8.107   0.4              1      -1.00        0.43       0.43
- pspini                            0.414   0.0         0.487   0.0              1      -1.00        0.85       0.85
- timing timab                      0.137   0.0         0.138   0.0             12      -1.00        0.99       0.99
- invars2                           0.036   0.0         0.036   0.0              1      -1.00        0.99       0.99
- xc:pot/=fourdp                    0.027   0.0         0.027   0.0              2      -1.00        0.97       0.97
- fourdp                            0.025   0.0         0.026   0.0             21      -1.00        0.96       0.96
- abinit(2)                         0.021   0.0         0.041   0.0              1      -1.00        0.51       0.51
- mkcore                            0.017   0.0         0.018   0.0              1      -1.00        0.98       0.98
- ewald                             0.015   0.0         0.016   0.0              1      -1.00        0.96       0.96
- kpgsph                            0.004   0.0         0.004   0.0            148      -1.00        1.00       1.00
- symrhg(no FFT)                    0.003   0.0         0.003   0.0              1      -1.00        0.99       0.99
- others (126)                      0.000   0.0         0.000   0.0             -1      -1.00        0.00       0.00
-<END_TIMER>
-
- subtotal                         86.480   4.0       101.167   4.5                                  0.85       0.85

- For major independent code sections, cpu and wall times (sec),
- as well as % of the total time and number of calls 

-<BEGIN_TIMER mpi_nprocs = 24, omp_nthreads = 1, mpi_rank = world>
- cpu_time =        2164.3, wall_time =        2230.7
-
- routine                            cpu     %          wall     %      number of calls Gflops    Speedup Efficacity
-                                                                        (-1=no count)
- sigma/=fourdp                  2076.448  95.9      2141.585  96.0             24      -1.00        0.97       0.97
- wfd_read_wfk                    187.364   8.7       194.551   8.7             24      -1.00        0.96       0.96
- pspini                            9.928   0.5        11.959   0.5             24      -1.00        0.83       0.83
- timing timab                      2.735   0.1         2.745   0.1            206      -1.00        1.00       1.00
- invars2                           0.861   0.0         0.865   0.0             24      -1.00        0.99       0.99
- abinit(2)                         0.720   0.0         0.744   0.0             24      -1.00        0.97       0.97
- xc:pot/=fourdp                    0.635   0.0         0.640   0.0             48      -1.00        0.99       0.99
- fourdp                            0.605   0.0         0.610   0.0            504      -1.00        0.99       0.99
- mkcore                            0.411   0.0         0.414   0.0             24      -1.00        0.99       0.99
- ewald                             0.363   0.0         0.365   0.0             24      -1.00        0.99       0.99
- kpgsph                            0.091   0.0         0.091   0.0           3557      -1.00        1.00       1.00
- symrhg(no FFT)                    0.081   0.0         0.082   0.0             24      -1.00        0.99       0.99
- others (126)                      0.000   0.0         0.000   0.0             -1      -1.00        0.00       0.00
-<END_TIMER>

- subtotal                       2280.243 105.4      2354.652 105.6                                  0.97       0.97

 Partitioning of abinit
- abinit                         2164.306 100.0      2230.701 100.0             24                   0.97       0.97
 
- abinit(1)                         3.146   0.1         3.422   0.2             24                   0.92       0.92
- abinit(2)                         0.720   0.0         0.744   0.0             24                   0.97       0.97
- indefo+macroin+invars2m           0.946   0.0         0.952   0.0             24                   0.99       0.99
- abinit(4)                         4.348   0.2         4.769   0.2             24                   0.91       0.91
- abinit(5)                         7.474   0.3         7.507   0.3             24                   1.00       1.00
- driver                         2149.137  99.3      2214.546  99.3             24                   0.97       0.97
- timing timab                      2.735   0.1         2.745   0.1            206                   1.00       1.00

- subtotal                       2164.306 100.0      2230.701 100.0                                  0.97       0.97

 Partitioning of driver
- driver                         2149.137  99.3      2214.546  99.3             24                   0.97       0.97
 
- sigma                          2076.474  95.9      2141.611  96.0             24                   0.97       0.97
- driver(aft. select case)         72.645   3.4        72.914   3.3             24                   1.00       1.00

- subtotal                       2149.137  99.3      2214.546  99.3                                  0.97       0.97

 Partitioning of sigma
- sigma                          2076.474  95.9      2141.611  96.0             24                   0.97       0.97
 
- sigma(Init1)                     11.320   0.5        13.367   0.6             48                   0.85       0.85
- setup_sigma                      14.127   0.7        14.477   0.6             24                   0.98       0.98
- sigma(rdkss)                    187.365   8.7       194.552   8.7             24                   0.96       0.96
- sigma(Init2)                      0.809   0.0         0.812   0.0             24                   1.00       1.00
- sigma(make_vhxc)                  6.914   0.3         7.429   0.3             24                   0.93       0.93
- sigma(vHxc_me)                    1.281   0.1         1.294   0.1             24                   0.99       0.99
- sigma(hqp_init)                   5.685   0.3         5.748   0.3             24                   0.99       0.99
- sigma(getW)                       2.062   0.1        45.114   2.0             24                   0.05       0.05
- sigma(calc_sigx_me)              27.041   1.2        27.259   1.2             24                   0.99       0.99
- sigma(calc_sigc_me)            1818.630  84.0      1827.260  81.9             72                   1.00       1.00

- subtotal                       2075.462  95.9      2137.731  95.8                                  0.97       0.97

 Partitioning of calc_sigc_me
- calc_sigc_me                   1818.630  84.0      1827.260  81.9             72                   1.00       1.00
 
- calc_sigc_me(Init)                6.377   0.3         6.434   0.3             72                   0.99       0.99
- calc_sigc_me(Init q)              0.762   0.0         0.814   0.0           3672                   0.94       0.94
- calc_sigc_me(loop)             1749.193  80.8      1757.305  78.8           3672                   1.00       1.00
- calc_sigc_me(xmpi_sum)           62.069   2.9        62.305   2.8             72                   1.00       1.00

- subtotal                       1818.508  84.0      1827.141  81.9                                  1.00       1.00

 Partitioning of  fourdp (upwards partitioning)
- fourdp                            0.605   0.0         0.610   0.0            504                   0.99       0.99
 
- fourdp%(other)                    0.580   0.0         0.585   0.0            480                   0.99       0.99

- subtotal                          0.605   0.0         0.610   0.0                                  0.99       0.99
-
-Synchronisation (=leave_test) and MPI calls 
- communic.MPI                      0.289   0.0         0.291   0.0             24                   0.99       0.99
-
- subtotal                          0.000   0.0         0.000   0.0                                  0.00       0.00

 Additional information
- timana(1)                         0.001   0.0         0.001   0.0             24                   1.01       1.01
- total timab                      10.563   0.5        10.600   0.5        1984230                   1.00       1.00
- xc:fourdp                         0.448   0.0         0.451   0.0            384                   0.99       0.99
- calc_sigc_me(1)             7704299.215**************************         156672                   0.00       0.00
- calc_sigc_me(rho_tw_g)          106.247   4.9       106.902   4.8         156672                   0.99       0.99
- calc_sigc_me(2)                1626.627  75.2      1634.475  73.3         535552                   1.00       1.00
- calc_sigc_me(sigma_me)            2.215   0.1         2.254   0.1         535552                   0.98       0.98


 Detailed analysis of some time consuming routines 
                                  tcpu    ncalls  tcpu/ncalls    ndata tcpu/ncalls/ndata
                                 (sec)                (msec)              (microsec)
- fourwf%(pot)                   0.000         0
- fourwf%(den)                   0.000         0
- fourdp                         0.605       504       1.201     91125       0.013
- nonlop(apply)                  0.000         0
- nonlop(forces)                 0.000         0
- nonlop(forstr)                 0.000         0
- projbd                         0.000         0
- xc:pot/=fourdp                 0.635        48      13.231     91125       0.145

================================================================================

 Suggested references for the acknowledgment of ABINIT usage.

 The users of ABINIT have little formal obligations with respect to the ABINIT group
 (those specified in the GNU General Public License, http://www.gnu.org/copyleft/gpl.txt).
 However, it is common practice in the scientific literature,
 to acknowledge the efforts of people that have made the research possible.
 In this spirit, please find below suggested citations of work written by ABINIT developers,
 corresponding to implementations inside of ABINIT that you have used in the present run.
 Note also that it will be of great value to readers of publications presenting these results,
 to read papers enabling them to understand the theoretical formalism and details
 of the ABINIT implementation.
 For information on why they are suggested, see also https://docs.abinit.org/theory/acknowledgments.
-
- [1] The Abinit project: Impact, environment and recent developments.
- Computer Phys. Comm. 248, 107042 (2020).
- X.Gonze, B. Amadon, G. Antonius, F.Arnardi, L.Baguet, J.-M.Beuken,
- J.Bieder, F.Bottin, J.Bouchet, E.Bousquet, N.Brouwer, F.Bruneval,
- G.Brunin, T.Cavignac, J.-B. Charraud, Wei Chen, M.Cote, S.Cottenier,
- J.Denier, G.Geneste, Ph.Ghosez, M.Giantomassi, Y.Gillet, O.Gingras,
- D.R.Hamann, G.Hautier, Xu He, N.Helbig, N.Holzwarth, Y.Jia, F.Jollet,
- W.Lafargue-Dit-Hauret, K.Lejaeghere, M.A.L.Marques, A.Martin, C.Martins,
- H.P.C. Miranda, F.Naccarato, K. Persson, G.Petretto, V.Planes, Y.Pouillon,
- S.Prokhorenko, F.Ricci, G.-M.Rignanese, A.H.Romero, M.M.Schmitt, M.Torrent,
- M.J.van Setten, B.Van Troeye, M.J.Verstraete, G.Zerah and J.W.Zwanzig
- Comment: the fifth generic paper describing the ABINIT project.
- Note that a version of this paper, that is not formatted for Computer Phys. Comm. 
- is available at https://www.abinit.org/sites/default/files/ABINIT20.pdf .
- The licence allows the authors to put it on the Web.
- DOI and bibtex: see https://docs.abinit.org/theory/bibliography/#gonze2020
-
- [2] Optimized norm-conserving Vanderbilt pseudopotentials.
- D.R. Hamann, Phys. Rev. B 88, 085117 (2013).
- Comment: Some pseudopotential generated using the ONCVPSP code were used.
- DOI and bibtex: see https://docs.abinit.org/theory/bibliography/#hamann2013
-
- [3] ABINIT: Overview, and focus on selected capabilities
- J. Chem. Phys. 152, 124102 (2020).
- A. Romero, D.C. Allan, B. Amadon, G. Antonius, T. Applencourt, L.Baguet,
- J.Bieder, F.Bottin, J.Bouchet, E.Bousquet, F.Bruneval,
- G.Brunin, D.Caliste, M.Cote,
- J.Denier, C. Dreyer, Ph.Ghosez, M.Giantomassi, Y.Gillet, O.Gingras,
- D.R.Hamann, G.Hautier, F.Jollet, G. Jomard,
- A.Martin, 
- H.P.C. Miranda, F.Naccarato, G.Petretto, N.A. Pike, V.Planes,
- S.Prokhorenko, T. Rangel, F.Ricci, G.-M.Rignanese, M.Royo, M.Stengel, M.Torrent,
- M.J.van Setten, B.Van Troeye, M.J.Verstraete, J.Wiktor, J.W.Zwanziger, and X.Gonze.
- Comment: a global overview of ABINIT, with focus on selected capabilities .
- Note that a version of this paper, that is not formatted for J. Chem. Phys 
- is available at https://www.abinit.org/sites/default/files/ABINIT20_JPC.pdf .
- The licence allows the authors to put it on the Web.
- DOI and bibtex: see https://docs.abinit.org/theory/bibliography/#romero2020
-
- [4] Recent developments in the ABINIT software package.
- Computer Phys. Comm. 205, 106 (2016).
- X.Gonze, F.Jollet, F.Abreu Araujo, D.Adams, B.Amadon, T.Applencourt,
- C.Audouze, J.-M.Beuken, J.Bieder, A.Bokhanchuk, E.Bousquet, F.Bruneval
- D.Caliste, M.Cote, F.Dahm, F.Da Pieve, M.Delaveau, M.Di Gennaro,
- B.Dorado, C.Espejo, G.Geneste, L.Genovese, A.Gerossier, M.Giantomassi,
- Y.Gillet, D.R.Hamann, L.He, G.Jomard, J.Laflamme Janssen, S.Le Roux,
- A.Levitt, A.Lherbier, F.Liu, I.Lukacevic, A.Martin, C.Martins,
- M.J.T.Oliveira, S.Ponce, Y.Pouillon, T.Rangel, G.-M.Rignanese,
- A.H.Romero, B.Rousseau, O.Rubel, A.A.Shukri, M.Stankovski, M.Torrent,
- M.J.Van Setten, B.Van Troeye, M.J.Verstraete, D.Waroquier, J.Wiktor,
- B.Xu, A.Zhou, J.W.Zwanziger.
- Comment: the fourth generic paper describing the ABINIT project.
- Note that a version of this paper, that is not formatted for Computer Phys. Comm. 
- is available at https://www.abinit.org/sites/default/files/ABINIT16.pdf .
- The licence allows the authors to put it on the Web.
- DOI and bibtex: see https://docs.abinit.org/theory/bibliography/#gonze2016
-
- And optionally:
-
- [5] ABINIT: First-principles approach of materials and nanosystem properties.
- Computer Phys. Comm. 180, 2582-2615 (2009).
- X. Gonze, B. Amadon, P.-M. Anglade, J.-M. Beuken, F. Bottin, P. Boulanger, F. Bruneval,
- D. Caliste, R. Caracas, M. Cote, T. Deutsch, L. Genovese, Ph. Ghosez, M. Giantomassi
- S. Goedecker, D.R. Hamann, P. Hermet, F. Jollet, G. Jomard, S. Leroux, M. Mancini, S. Mazevet,
- M.J.T. Oliveira, G. Onida, Y. Pouillon, T. Rangel, G.-M. Rignanese, D. Sangalli, R. Shaltaf,
- M. Torrent, M.J. Verstraete, G. Zerah, J.W. Zwanziger
- Comment: the third generic paper describing the ABINIT project.
- Note that a version of this paper, that is not formatted for Computer Phys. Comm. 
- is available at https://www.abinit.org/sites/default/files/ABINIT_CPC_v10.pdf .
- The licence allows the authors to put it on the Web.
- DOI and bibtex: see https://docs.abinit.org/theory/bibliography/#gonze2009
-
- Proc.   0 individual time (sec): cpu=         82.6  wall=         93.3
 
================================================================================
 
 Calculation completed.
.Delivered   0 WARNINGs and   0 COMMENTs to log file.
+Overall time at end (sec) : cpu=       2173.7  wall=       2240.2
