
.Version 9.4.2 of ABINIT 
.(MPI version, prepared for a x86_64_linux_intel19.0 computer) 

.Copyright (C) 1998-2021 ABINIT group . 
 ABINIT comes with ABSOLUTELY NO WARRANTY.
 It is free software, and you are welcome to redistribute it
 under certain conditions (GNU General Public License,
 see ~abinit/COPYING or http://www.gnu.org/copyleft/gpl.txt).

 ABINIT is a project of the Universite Catholique de Louvain,
 Corning Inc. and other collaborators, see ~abinit/doc/developers/contributors.txt .
 Please read https://docs.abinit.org/theory/acknowledgments for suggested
 acknowledgments of the ABINIT effort.
 For more information, see https://www.abinit.org .

.Starting date : Fri 21 Jan 2022.
- ( at 21h59 )
  
- input  file    -> gw.abi
- output file    -> gw.abo
- root for input  files -> gwi
- root for output files -> gwo
 
 
 DATASET    3 : space group P6_3 m c (#186); Bravais hP (primitive hexag.)
================================================================================
 Values of the parameters that define the memory need for DATASET  3.
     intxc =       0    ionmov =       0      iscf =       7    lmnmax =       6
     lnmax =       6     mgfft =      60  mpssoang =       3    mqgrid =    3001
     natom =       4  nloc_mem =       1    nspden =       1   nspinor =       1
    nsppol =       1      nsym =      12    n1xccc =    2501    ntypat =       2
    occopt =       1   xclevel =       2
-    mband =         500        mffmem =           1         mkmem =           1
       mpw =        3909          nfft =       77760          nkpt =          30
================================================================================
P This job should need less than                      62.675 Mbytes of memory.
  Rough estimation (10% accuracy) of disk space for files :
_ WF disk file :    894.701 Mbytes ; DEN or POT disk file :      0.595 Mbytes.
================================================================================
 
--------------------------------------------------------------------------------
------------- Echo of variables that govern the present computation ------------
--------------------------------------------------------------------------------
-
- outvars: echo of selected default values                                      
-   iomode0 =  0 , fftalg0 =512 , wfoptalg0 =  0
-
- outvars: echo of global parameters not present in the input file              
-  max_nthreads =    0
-
 -outvars: echo values of preprocessed input variables --------
            acell      6.1404760962E+00  6.1404760962E+00  9.8337568503E+00 Bohr
              amu      6.53900000E+01  1.59994000E+01
           diemac      1.20000000E+01
             ecut      4.00000000E+01 Hartree
          ecuteps      4.00000000E+00 Hartree
         ecutsigx      4.00000000E+01 Hartree
          ecutwfn      4.00000000E+01 Hartree
-          fftalg         512
           getwfk           2
           istwfk        1    0    0    0    1    0    0    0    0    0
                         0    0    0    0    0    0    0    0    0    0
                         0    0    0    0    0    0    0    0    0    0
              ixc     -116133
           jdtset        3
              kpt      0.00000000E+00  0.00000000E+00  0.00000000E+00
                       1.25000000E-01  0.00000000E+00  0.00000000E+00
                       2.50000000E-01  0.00000000E+00  0.00000000E+00
                       3.75000000E-01  0.00000000E+00  0.00000000E+00
                       5.00000000E-01  0.00000000E+00  0.00000000E+00
                       1.25000000E-01  1.25000000E-01  0.00000000E+00
                       2.50000000E-01  1.25000000E-01  0.00000000E+00
                       3.75000000E-01  1.25000000E-01  0.00000000E+00
                       2.50000000E-01  2.50000000E-01  0.00000000E+00
                       3.75000000E-01  2.50000000E-01  0.00000000E+00
                       0.00000000E+00  0.00000000E+00  2.00000000E-01
                       1.25000000E-01  0.00000000E+00  2.00000000E-01
                       2.50000000E-01  0.00000000E+00  2.00000000E-01
                       3.75000000E-01  0.00000000E+00  2.00000000E-01
                       5.00000000E-01  0.00000000E+00  2.00000000E-01
                       1.25000000E-01  1.25000000E-01  2.00000000E-01
                       2.50000000E-01  1.25000000E-01  2.00000000E-01
                       3.75000000E-01  1.25000000E-01  2.00000000E-01
                       2.50000000E-01  2.50000000E-01  2.00000000E-01
                       3.75000000E-01  2.50000000E-01  2.00000000E-01
                       0.00000000E+00  0.00000000E+00  4.00000000E-01
                       1.25000000E-01  0.00000000E+00  4.00000000E-01
                       2.50000000E-01  0.00000000E+00  4.00000000E-01
                       3.75000000E-01  0.00000000E+00  4.00000000E-01
                       5.00000000E-01  0.00000000E+00  4.00000000E-01
                       1.25000000E-01  1.25000000E-01  4.00000000E-01
                       2.50000000E-01  1.25000000E-01  4.00000000E-01
                       3.75000000E-01  1.25000000E-01  4.00000000E-01
                       2.50000000E-01  2.50000000E-01  4.00000000E-01
                       3.75000000E-01  2.50000000E-01  4.00000000E-01
         kptrlatt        8    0    0      0    8    0      0    0    5
          kptrlen      4.91238088E+01
P           mkmem           1
            natom           4
            nband         500
           ndtset           1
            ngfft          36      36      60
             nkpt          30
           npweps         135
          npwsigx        3909
           npwwfn        3909
            nstep         200
             nsym          12
           ntypat           2
              occ      2.000000  2.000000  2.000000  2.000000  2.000000  2.000000
                       2.000000  2.000000  2.000000  2.000000  2.000000  2.000000
                       2.000000  2.000000  2.000000  2.000000  2.000000  2.000000
                       2.000000  2.000000  2.000000  2.000000  2.000000  2.000000
                       2.000000  2.000000  0.000000  0.000000  0.000000  0.000000
                       0.000000  0.000000  0.000000  0.000000  0.000000  0.000000
                       0.000000  0.000000  0.000000  0.000000  0.000000  0.000000
                       0.000000  0.000000  0.000000  0.000000  0.000000  0.000000
                       0.000000  0.000000  0.000000  0.000000  0.000000  0.000000
                       0.000000  0.000000  0.000000  0.000000  0.000000  0.000000
                       0.000000  0.000000  0.000000  0.000000  0.000000  0.000000
                       0.000000  0.000000  0.000000  0.000000  0.000000  0.000000
                       0.000000  0.000000  0.000000  0.000000  0.000000  0.000000
                       0.000000  0.000000  0.000000  0.000000  0.000000  0.000000
                       0.000000  0.000000  0.000000  0.000000  0.000000  0.000000
                       0.000000  0.000000  0.000000  0.000000  0.000000  0.000000
                       0.000000  0.000000  0.000000  0.000000  0.000000  0.000000
                       0.000000  0.000000  0.000000  0.000000  0.000000  0.000000
                       0.000000  0.000000  0.000000  0.000000  0.000000  0.000000
                       0.000000  0.000000  0.000000  0.000000  0.000000  0.000000
                       0.000000  0.000000  0.000000  0.000000  0.000000  0.000000
                       0.000000  0.000000  0.000000  0.000000  0.000000  0.000000
                       0.000000  0.000000  0.000000  0.000000  0.000000  0.000000
                       0.000000  0.000000  0.000000  0.000000  0.000000  0.000000
                       0.000000  0.000000  0.000000  0.000000  0.000000  0.000000
                       0.000000  0.000000  0.000000  0.000000  0.000000  0.000000
                       0.000000  0.000000  0.000000  0.000000  0.000000  0.000000
                       0.000000  0.000000  0.000000  0.000000  0.000000  0.000000
                       0.000000  0.000000  0.000000  0.000000  0.000000  0.000000
                       0.000000  0.000000  0.000000  0.000000  0.000000  0.000000
                       0.000000  0.000000  0.000000  0.000000  0.000000  0.000000
                       0.000000  0.000000  0.000000  0.000000  0.000000  0.000000
                       0.000000  0.000000  0.000000  0.000000  0.000000  0.000000
                       0.000000  0.000000  0.000000  0.000000  0.000000  0.000000
                       0.000000  0.000000  0.000000  0.000000  0.000000  0.000000
                       0.000000  0.000000  0.000000  0.000000  0.000000  0.000000
                       0.000000  0.000000  0.000000  0.000000  0.000000  0.000000
                       0.000000  0.000000  0.000000  0.000000  0.000000  0.000000
                       0.000000  0.000000  0.000000  0.000000  0.000000  0.000000
                       0.000000  0.000000  0.000000  0.000000  0.000000  0.000000
                       0.000000  0.000000  0.000000  0.000000  0.000000  0.000000
                       0.000000  0.000000  0.000000  0.000000  0.000000  0.000000
                       0.000000  0.000000  0.000000  0.000000  0.000000  0.000000
                       0.000000  0.000000  0.000000  0.000000  0.000000  0.000000
                       0.000000  0.000000  0.000000  0.000000  0.000000  0.000000
                       0.000000  0.000000  0.000000  0.000000  0.000000  0.000000
                       0.000000  0.000000  0.000000  0.000000  0.000000  0.000000
                       0.000000  0.000000  0.000000  0.000000  0.000000  0.000000
                       0.000000  0.000000  0.000000  0.000000  0.000000  0.000000
                       0.000000  0.000000  0.000000  0.000000  0.000000  0.000000
                       0.000000  0.000000  0.000000  0.000000  0.000000  0.000000
                       0.000000  0.000000  0.000000  0.000000  0.000000  0.000000
                       0.000000  0.000000  0.000000  0.000000  0.000000  0.000000
                       0.000000  0.000000  0.000000  0.000000  0.000000  0.000000
                       0.000000  0.000000  0.000000  0.000000  0.000000  0.000000
                       0.000000  0.000000  0.000000  0.000000  0.000000  0.000000
                       0.000000  0.000000  0.000000  0.000000  0.000000  0.000000
                       0.000000  0.000000  0.000000  0.000000  0.000000  0.000000
                       0.000000  0.000000  0.000000  0.000000  0.000000  0.000000
                       0.000000  0.000000  0.000000  0.000000  0.000000  0.000000
                       0.000000  0.000000  0.000000  0.000000  0.000000  0.000000
                       0.000000  0.000000  0.000000  0.000000  0.000000  0.000000
                       0.000000  0.000000  0.000000  0.000000  0.000000  0.000000
                       0.000000  0.000000  0.000000  0.000000  0.000000  0.000000
                       0.000000  0.000000  0.000000  0.000000  0.000000  0.000000
                       0.000000  0.000000  0.000000  0.000000  0.000000  0.000000
                       0.000000  0.000000  0.000000  0.000000  0.000000  0.000000
                       0.000000  0.000000  0.000000  0.000000  0.000000  0.000000
                       0.000000  0.000000  0.000000  0.000000  0.000000  0.000000
                       0.000000  0.000000  0.000000  0.000000  0.000000  0.000000
                       0.000000  0.000000  0.000000  0.000000  0.000000  0.000000
                       0.000000  0.000000  0.000000  0.000000  0.000000  0.000000
                       0.000000  0.000000  0.000000  0.000000  0.000000  0.000000
                       0.000000  0.000000  0.000000  0.000000  0.000000  0.000000
                       0.000000  0.000000  0.000000  0.000000  0.000000  0.000000
                       0.000000  0.000000  0.000000  0.000000  0.000000  0.000000
                       0.000000  0.000000  0.000000  0.000000  0.000000  0.000000
                       0.000000  0.000000  0.000000  0.000000  0.000000  0.000000
                       0.000000  0.000000  0.000000  0.000000  0.000000  0.000000
                       0.000000  0.000000  0.000000  0.000000  0.000000  0.000000
                       0.000000  0.000000  0.000000  0.000000  0.000000  0.000000
                       0.000000  0.000000  0.000000  0.000000  0.000000  0.000000
                       0.000000  0.000000  0.000000  0.000000  0.000000  0.000000
                       0.000000  0.000000
        optdriver           3
            rprim      1.0000000000E+00  0.0000000000E+00  0.0000000000E+00
                      -5.0000000000E-01  8.6602540378E-01  0.0000000000E+00
                       6.1232339957E-17  1.0605752387E-16  1.0000000000E+00
          spgroup         186
           symrel      1  0  0   0  1  0   0  0  1       0  1  0   1  0  0   0  0  1
                       1  1  0  -1  0  0   0  0  1      -1  0  0   1  1  0   0  0  1
                       0  1  0  -1 -1  0   0  0  1      -1 -1  0   0  1  0   0  0  1
                      -1  0  0   0 -1  0   0  0  1       0 -1  0  -1  0  0   0  0  1
                      -1 -1  0   1  0  0   0  0  1       1  0  0  -1 -1  0   0  0  1
                       0 -1  0   1  1  0   0  0  1       1  1  0   0 -1  0   0  0  1
            tnons      0.0000000  0.0000000  0.0000000     0.0000000 -0.0000000  0.5000000
                      -0.0000000 -0.0000000  0.5000000     0.0000000  0.0000000  0.0000000
                      -0.0000000 -0.0000000  0.0000000     0.0000000  0.0000000  0.5000000
                       0.0000000 -0.0000000  0.5000000    -0.0000000 -0.0000000  0.0000000
                       0.0000000 -0.0000000  0.0000000    -0.0000000 -0.0000000  0.5000000
                       0.0000000  0.0000000  0.5000000     0.0000000 -0.0000000  0.0000000
            typat      1  1  2  2
              wtk        0.00313    0.01875    0.01875    0.01875    0.00938    0.01875
                         0.03750    0.03750    0.01875    0.01875    0.00625    0.03750
                         0.03750    0.03750    0.01875    0.03750    0.07500    0.07500
                         0.03750    0.03750    0.00625    0.03750    0.03750    0.03750
                         0.01875    0.03750    0.07500    0.07500    0.03750    0.03750
           xangst      7.0500566530E-16  1.8760419647E+00  0.0000000000E+00
                       1.6247000000E+00  9.3802098235E-01  2.6019000000E+00
                       9.4000755373E-16  1.8760419647E+00  1.9883719800E+00
                       1.6247000000E+00  9.3802098235E-01  4.5902719800E+00
            xcart      1.3322676296E-15  3.5452055271E+00  0.0000000000E+00
                       3.0702380481E+00  1.7726027635E+00  4.9168784252E+00
                       1.7763568394E-15  3.5452055271E+00  3.7574784925E+00
                       3.0702380481E+00  1.7726027635E+00  8.6743569177E+00
             xred      3.3333333333E-01  6.6666666667E-01  0.0000000000E+00
                       6.6666666667E-01  3.3333333333E-01  5.0000000000E-01
                       3.3333333333E-01  6.6666666667E-01  3.8210000000E-01
                       6.6666666667E-01  3.3333333333E-01  8.8210000000E-01
            znucl       30.00000    8.00000
 
================================================================================
 
 chkinp: Checking input parameters for consistency, jdtset=   3.
 
================================================================================
== DATASET  3 ==================================================================
-   mpi_nproc: 960, omp_nthreads: -1 (-1 if OMP is not activated)
 

--- !DatasetInfo
iteration_state: {dtset: 3, }
dimensions: {natom: 4, nkpt: 30, mband: 500, nsppol: 1, nspinor: 1, nspden: 1, mpw: 3909, }
cutoff_energies: {ecut:  40.0, pawecutdg:  -1.0, }
electrons: {nelect:   5.20000000E+01, charge:   0.00000000E+00, occopt:   1.00000000E+00, tsmear:   1.00000000E-02, }
meta: {optdriver: 3, gwcalctyp: 0, }
...

 mkfilename : getwfk/=0, take file _WFK from output of DATASET   2.
 
 SCREENING: Calculation of the susceptibility and dielectric matrices 
 
 Based on a program developped by R.W. Godby, V. Olevano, G. Onida, and L. Reining.
 Incorporated in ABINIT by V. Olevano, G.-M. Rignanese, and M. Torrent.
.Using single precision arithmetic ; gwpc =  4
 
 Real(R)+Recip(G) space primitive vectors, cartesian coordinates (Bohr,Bohr^-1):
 R(1)=  6.1404761  0.0000000  0.0000000  G(1)=  0.1628538  0.0940237  0.0000000
 R(2)= -3.0702380  5.3178083  0.0000000  G(2)=  0.0000000  0.1880474  0.0000000
 R(3)=  0.0000000  0.0000000  9.8337569  G(3)=  0.0000000  0.0000000  0.1016905
 Unit cell volume ucvol=  3.2111026E+02 bohr^3
 Angles (23,13,12)=  9.00000000E+01  9.00000000E+01  1.20000000E+02 degrees
 
--- Pseudopotential description ------------------------------------------------
- pspini: atom type   1  psp file is ./Zn.psp8
- pspatm: opening atomic psp file    ./Zn.psp8
- Zn    ONCVPSP-3.3.0  r_core=   1.35823   1.66358   1.85211
- 30.00000  20.00000    180112                znucl, zion, pspdat
    8 -116133    2    4       600   0.00000   pspcod,pspxc,lmax,lloc,mmax,r2well
    5.99000000000000    2.50000000000000    0.00000000000000   rchrg,fchrg,qchrg
     nproj     2     2     2
     extension_switch     1
  pspatm : epsatm=   26.57343589
         --- l  ekb(1:nproj) -->
             0    2.830835   -1.519107
             1   -4.626739   -1.324150
             2   -6.948510   -2.555500
 pspatm: atomic psp has been read  and splines computed
 
- pspini: atom type   2  psp file is ./O.psp8
- pspatm: opening atomic psp file    ./O.psp8
- O     ONCVPSP-3.3.0  r_core=   1.35509   1.45563   1.26150
-  8.00000   6.00000    180112                znucl, zion, pspdat
    8 -116133    2    4       600   0.00000   pspcod,pspxc,lmax,lloc,mmax,r2well
    5.99000000000000    4.00000000000000    0.00000000000000   rchrg,fchrg,qchrg
     nproj     2     2     1
     extension_switch     1
  pspatm : epsatm=    6.22910522
         --- l  ekb(1:nproj) -->
             0    6.050032    0.820363
             1   -4.739617   -1.153841
             2   -1.335834
 pspatm: atomic psp has been read  and splines computed
 
   3.41146427E+03                                ecore*ucvol(ha*bohr**3)
--------------------------------------------------------------------------------
 
 ==== K-mesh for the wavefunctions ====
 Number of points in the irreducible wedge :    30
 Reduced coordinates and weights : 
 
     1)     0.00000000E+00  0.00000000E+00  0.00000000E+00       0.00313
     2)     1.25000000E-01  0.00000000E+00  0.00000000E+00       0.01875
     3)     2.50000000E-01  0.00000000E+00  0.00000000E+00       0.01875
     4)     3.75000000E-01  0.00000000E+00  0.00000000E+00       0.01875
     5)     5.00000000E-01  0.00000000E+00  0.00000000E+00       0.00938
     6)     1.25000000E-01  1.25000000E-01  0.00000000E+00       0.01875
     7)     2.50000000E-01  1.25000000E-01  0.00000000E+00       0.03750
     8)     3.75000000E-01  1.25000000E-01  0.00000000E+00       0.03750
     9)     2.50000000E-01  2.50000000E-01  0.00000000E+00       0.01875
    10)     3.75000000E-01  2.50000000E-01  0.00000000E+00       0.01875
    11)     0.00000000E+00  0.00000000E+00  2.00000000E-01       0.00625
    12)     1.25000000E-01  0.00000000E+00  2.00000000E-01       0.03750
    13)     2.50000000E-01  0.00000000E+00  2.00000000E-01       0.03750
    14)     3.75000000E-01  0.00000000E+00  2.00000000E-01       0.03750
    15)     5.00000000E-01  0.00000000E+00  2.00000000E-01       0.01875
    16)     1.25000000E-01  1.25000000E-01  2.00000000E-01       0.03750
    17)     2.50000000E-01  1.25000000E-01  2.00000000E-01       0.07500
    18)     3.75000000E-01  1.25000000E-01  2.00000000E-01       0.07500
    19)     2.50000000E-01  2.50000000E-01  2.00000000E-01       0.03750
    20)     3.75000000E-01  2.50000000E-01  2.00000000E-01       0.03750
    21)     0.00000000E+00  0.00000000E+00  4.00000000E-01       0.00625
    22)     1.25000000E-01  0.00000000E+00  4.00000000E-01       0.03750
    23)     2.50000000E-01  0.00000000E+00  4.00000000E-01       0.03750
    24)     3.75000000E-01  0.00000000E+00  4.00000000E-01       0.03750
    25)     5.00000000E-01  0.00000000E+00  4.00000000E-01       0.01875
    26)     1.25000000E-01  1.25000000E-01  4.00000000E-01       0.03750
    27)     2.50000000E-01  1.25000000E-01  4.00000000E-01       0.07500
    28)     3.75000000E-01  1.25000000E-01  4.00000000E-01       0.07500
    29)     2.50000000E-01  2.50000000E-01  4.00000000E-01       0.03750
    30)     3.75000000E-01  2.50000000E-01  4.00000000E-01       0.03750
 
 Together with 12 symmetry operations and time-reversal symmetry 
 yields   320 points in the full Brillouin Zone.
 
 
 ==== Q-mesh for the screening function ====
 Number of points in the irreducible wedge :    30
 Reduced coordinates and weights : 
 
     1)     0.00000000E+00  0.00000000E+00  0.00000000E+00       0.00313
     2)     1.25000000E-01  0.00000000E+00  0.00000000E+00       0.01875
     3)     2.50000000E-01  0.00000000E+00  0.00000000E+00       0.01875
     4)     3.75000000E-01  0.00000000E+00  0.00000000E+00       0.01875
     5)     5.00000000E-01  0.00000000E+00  0.00000000E+00       0.00938
     6)     1.25000000E-01  1.25000000E-01  0.00000000E+00       0.01875
     7)     2.50000000E-01  1.25000000E-01  0.00000000E+00       0.03750
     8)     3.75000000E-01  1.25000000E-01  0.00000000E+00       0.03750
     9)     2.50000000E-01  2.50000000E-01  0.00000000E+00       0.01875
    10)     3.75000000E-01  2.50000000E-01  0.00000000E+00       0.01875
    11)     0.00000000E+00  0.00000000E+00  2.00000000E-01       0.00625
    12)     1.25000000E-01  0.00000000E+00  2.00000000E-01       0.03750
    13)     2.50000000E-01  0.00000000E+00  2.00000000E-01       0.03750
    14)     3.75000000E-01  0.00000000E+00  2.00000000E-01       0.03750
    15)     5.00000000E-01  0.00000000E+00  2.00000000E-01       0.01875
    16)     1.25000000E-01  1.25000000E-01  2.00000000E-01       0.03750
    17)     2.50000000E-01  1.25000000E-01  2.00000000E-01       0.07500
    18)     3.75000000E-01  1.25000000E-01  2.00000000E-01       0.07500
    19)     2.50000000E-01  2.50000000E-01  2.00000000E-01       0.03750
    20)     3.75000000E-01  2.50000000E-01  2.00000000E-01       0.03750
    21)     0.00000000E+00  0.00000000E+00  4.00000000E-01       0.00625
    22)     1.25000000E-01  0.00000000E+00  4.00000000E-01       0.03750
    23)     2.50000000E-01  0.00000000E+00  4.00000000E-01       0.03750
    24)     3.75000000E-01  0.00000000E+00  4.00000000E-01       0.03750
    25)     5.00000000E-01  0.00000000E+00  4.00000000E-01       0.01875
    26)     1.25000000E-01  1.25000000E-01  4.00000000E-01       0.03750
    27)     2.50000000E-01  1.25000000E-01  4.00000000E-01       0.07500
    28)     3.75000000E-01  1.25000000E-01  4.00000000E-01       0.07500
    29)     2.50000000E-01  2.50000000E-01  4.00000000E-01       0.03750
    30)     3.75000000E-01  2.50000000E-01  4.00000000E-01       0.03750
 
 Together with 12 symmetry operations and time-reversal symmetry 
 yields   320 points in the full Brillouin Zone.
 
 
 setmesh: FFT mesh size selected  =    20x   20x   40
          total number of points  =        16000
 
 
- screening: taking advantage of time-reversal symmetry 
- Maximum band index for partially occupied states nbvw = 26
- Remaining bands to be divided among processors   nbcw = 474
- Number of bands treated by each node ~0
 
 Number of electrons calculated from density =   52.0000; Expected =   52.0000
 average of density, n =  0.161938
 r_s =    1.1381
 omega_plasma =   38.8177 [eV]
 
 
 calculating chi0 at frequencies [eV] :
  1    0.000000E+00    0.000000E+00
  2    0.000000E+00    3.881773E+01
 
 
--------------------------------------------------------------------------------
  q-point number  1        q = ( 0.000000, 0.000000, 0.000000) [r.l.u.]
--------------------------------------------------------------------------------
  chi0(G,G') at the    1 th omega   0.0000   0.0000 [eV]
       1       2       3       4       5       6       7       8       9
    1  -0.000  -0.000  -0.000   0.000   0.000  -0.000   0.000  -0.000  -0.000
        0.000   0.000  -0.000   0.000   0.000   0.000   0.000   0.000   0.000
 
    2  -0.000 -15.514   1.357  -2.535   2.535   2.535  -2.535  -2.535   2.535
       -0.000   0.000   2.035   1.845  -1.845  -1.845   1.845   1.845  -1.845
 
  chi0(G,G') at the    2 th omega   0.0000  38.8177 [eV]
       1       2       3       4       5       6       7       8       9
    1  -0.000   0.000  -0.000   0.000   0.000  -0.000   0.000  -0.000  -0.000
        0.000  -0.000  -0.000   0.000   0.000   0.000   0.000   0.000   0.000
 
    2   0.000  -3.037   0.983  -0.108   0.108   0.108  -0.108  -0.108   0.108
        0.000   0.000   0.709  -0.030   0.030   0.030  -0.030  -0.030   0.030
 
 For q-point:  0.000010 0.000020 0.000030
  dielectric constant =   6.0103
  dielectric constant without local fields =   6.2521
 
  Average fulfillment of the sum rule on Im[epsilon] for q-point    1 :     91.19  [%]
  Heads and wings of the symmetrical epsilon^-1(G,G') 
 
   Upper and lower wings at the    1 th omega   0.0000   0.0000 [eV]
       1       2       3       4       5       6       7       8       9
      0.166   0.000   0.000   0.019   0.024  -0.005   0.005  -0.024  -0.019
      0.000  -0.000   0.000   0.000   0.000   0.000   0.000   0.000   0.000
       1       2       3       4       5       6       7       8       9
      0.166  -0.000   0.000   0.019   0.024  -0.005   0.005  -0.024  -0.019
      0.000  -0.000   0.000  -0.000  -0.000  -0.000  -0.000  -0.000  -0.000
 
 
   Upper and lower wings at the    2 th omega   0.0000  38.8177 [eV]
       1       2       3       4       5       6       7       8       9
      0.768   0.000  -0.000   0.030   0.038  -0.008   0.008  -0.038  -0.030
      0.000  -0.000   0.000   0.000   0.000   0.000   0.000   0.000   0.000
       1       2       3       4       5       6       7       8       9
      0.768   0.000   0.000   0.030   0.038  -0.008   0.008  -0.038  -0.030
      0.000   0.000  -0.000  -0.000  -0.000  -0.000  -0.000  -0.000  -0.000
 
 
 
 
--------------------------------------------------------------------------------
  q-point number  2        q = ( 0.125000, 0.000000, 0.000000) [r.l.u.]
--------------------------------------------------------------------------------
  chi0(G,G') at the    1 th omega   0.0000   0.0000 [eV]
       1       2       3       4       5       6       7       8       9
    1  -1.999   0.013  -0.013   1.381   0.998   0.998  -0.074  -0.074  -0.892
        0.000   0.007   0.007  -0.000  -0.000  -0.000  -0.000  -0.000  -0.000
 
    2   0.013 -16.238   1.085  -3.018   2.902   2.902  -2.408  -2.408   1.968
       -0.007   0.000   1.305   1.847  -1.939  -1.939   1.898   1.898  -1.698
 
  chi0(G,G') at the    2 th omega   0.0000  38.8177 [eV]
       1       2       3       4       5       6       7       8       9
    1  -0.185   0.000  -0.000   0.375   0.220   0.220  -0.126  -0.126  -0.319
        0.000  -0.000  -0.000   0.000  -0.000   0.000   0.000  -0.000   0.000
 
    2   0.000  -3.178   0.910  -0.273   0.204   0.204  -0.048  -0.048  -0.040
        0.000   0.000   0.654  -0.168   0.109   0.109   0.019   0.019  -0.089
 
  Average fulfillment of the sum rule on Im[epsilon] for q-point    2 :     98.36  [%]
 
 
--------------------------------------------------------------------------------
  q-point number  3        q = ( 0.250000, 0.000000, 0.000000) [r.l.u.]
--------------------------------------------------------------------------------
  chi0(G,G') at the    1 th omega   0.0000   0.0000 [eV]
       1       2       3       4       5       6       7       8       9
    1  -6.214   0.065  -0.065   2.813   2.291   2.291   0.574   0.574  -1.388
        0.000   0.034   0.034  -0.000   0.000  -0.000  -0.000   0.000   0.000
 
    2   0.065 -17.875   0.387  -3.357   3.315   3.315  -2.524  -2.524   1.395
       -0.034   0.000  -0.360   1.682  -1.992  -1.992   2.084   2.084  -1.465
 
  chi0(G,G') at the    2 th omega   0.0000  38.8177 [eV]
       1       2       3       4       5       6       7       8       9
    1  -0.723   0.001  -0.001   0.783   0.514   0.514  -0.146  -0.146  -0.562
        0.000  -0.000  -0.000  -0.000   0.000   0.000   0.000   0.000   0.000
 
    2   0.001  -3.591   0.695  -0.448   0.329   0.329  -0.030  -0.030  -0.159
        0.000   0.000   0.494  -0.316   0.212   0.212   0.034   0.034  -0.183
 
  Average fulfillment of the sum rule on Im[epsilon] for q-point    3 :     95.33  [%]
 
 
--------------------------------------------------------------------------------
  q-point number  4        q = ( 0.375000, 0.000000, 0.000000) [r.l.u.]
--------------------------------------------------------------------------------
  chi0(G,G') at the    1 th omega   0.0000   0.0000 [eV]
       1       2       3       4       5       6       7       8       9
    1 -10.781   0.150  -0.150   3.998   3.431   3.431   1.573   1.573  -1.646
        0.000   0.088   0.088  -0.000  -0.000  -0.000  -0.000   0.000  -0.000
 
    2   0.150 -19.660  -0.549  -3.559   3.625   3.625  -2.763  -2.763   0.864
       -0.088   0.000  -2.192   1.389  -1.880  -1.880   2.263   2.263  -1.196
 
  chi0(G,G') at the    2 th omega   0.0000  38.8177 [eV]
       1       2       3       4       5       6       7       8       9
    1  -1.568   0.003  -0.003   1.200   0.858   0.858  -0.057  -0.057  -0.714
        0.000  -0.001  -0.001  -0.000   0.000   0.000   0.000   0.000   0.000
 
    2   0.003  -4.239   0.359  -0.623   0.475   0.475  -0.056  -0.056  -0.243
        0.001   0.000   0.243  -0.466   0.331   0.331   0.015   0.015  -0.244
 
  Average fulfillment of the sum rule on Im[epsilon] for q-point    4 :     93.46  [%]
 
 
--------------------------------------------------------------------------------
  q-point number  5        q = ( 0.500000, 0.000000, 0.000000) [r.l.u.]
--------------------------------------------------------------------------------
  chi0(G,G') at the    1 th omega   0.0000   0.0000 [eV]
       1       2       3       4       5       6       7       8       9
    1 -14.930   0.244  -0.244   4.898   4.326   4.326   2.708   2.708  -1.728
        0.000   0.162   0.162   0.000  -0.000  -0.000   0.000   0.000   0.000
 
    2   0.244 -21.232  -1.589  -3.663   3.801   3.801  -3.034  -3.034   0.407
       -0.162   0.000  -3.805   1.026  -1.608  -1.608   2.339   2.339  -0.922
 
  chi0(G,G') at the    2 th omega   0.0000  38.8177 [eV]
       1       2       3       4       5       6       7       8       9
    1  -2.652   0.007  -0.007   1.605   1.230   1.230   0.131   0.131  -0.766
        0.000  -0.002  -0.002  -0.000   0.000   0.000   0.000   0.000   0.000
 
    2   0.007  -5.070  -0.069  -0.791   0.633   0.633  -0.125  -0.125  -0.284
        0.002   0.000  -0.077  -0.609   0.459   0.459  -0.039  -0.039  -0.270
 
  Average fulfillment of the sum rule on Im[epsilon] for q-point    5 :     92.90  [%]
 
 
--------------------------------------------------------------------------------
  q-point number  6        q = ( 0.125000, 0.125000, 0.000000) [r.l.u.]
--------------------------------------------------------------------------------
  chi0(G,G') at the    1 th omega   0.0000   0.0000 [eV]
       1       2       3       4       5       6       7       8       9
    1  -5.019   0.000  -0.000   2.327   2.327   1.320   1.320  -0.745  -0.745
        0.000   0.000   0.000  -0.000  -0.000  -0.000  -0.000   0.000   0.000
 
    2   0.000 -17.408   0.602  -3.277   3.277   2.976  -2.976  -1.853   1.853
       -0.000   0.000   0.117   1.821  -1.821  -2.121   2.121   1.722  -1.722
 
  chi0(G,G') at the    2 th omega   0.0000  38.8177 [eV]
       1       2       3       4       5       6       7       8       9
    1  -0.546   0.000  -0.000   0.609   0.609   0.157   0.157  -0.405  -0.405
        0.000   0.000  -0.000   0.000  -0.000   0.000   0.000  -0.000   0.000
 
    2   0.000  -3.455   0.766  -0.373   0.373   0.171  -0.171   0.085  -0.085
       -0.000   0.000   0.546  -0.252   0.252   0.080  -0.080   0.125  -0.125
 
  Average fulfillment of the sum rule on Im[epsilon] for q-point    6 :     96.06  [%]
 
 
--------------------------------------------------------------------------------
  q-point number  7        q = ( 0.250000, 0.125000, 0.000000) [r.l.u.]
--------------------------------------------------------------------------------
  chi0(G,G') at the    1 th omega   0.0000   0.0000 [eV]
       1       2       3       4       5       6       7       8       9
    1  -9.269   0.063  -0.063   3.565   3.357   2.691   2.065   0.084  -1.121
        0.000   0.035   0.035   0.000  -0.000  -0.000  -0.000   0.000  -0.000
 
    2   0.063 -19.088  -0.207  -3.521   3.547   3.451  -3.166  -2.013   1.308
       -0.035   0.000  -1.602   1.568  -1.742  -2.159   2.304   1.905  -1.475
 
  chi0(G,G') at the    2 th omega   0.0000  38.8177 [eV]
       1       2       3       4       5       6       7       8       9
    1  -1.238   0.001  -0.001   1.020   0.902   0.506   0.195  -0.376  -0.602
        0.000  -0.000  -0.000   0.000  -0.000   0.000   0.000  -0.000   0.000
 
    2   0.001  -3.985   0.491  -0.547   0.496   0.320  -0.177   0.084  -0.186
        0.000   0.000   0.341  -0.400   0.354   0.201  -0.083   0.124  -0.203
 
  Average fulfillment of the sum rule on Im[epsilon] for q-point    7 :     93.97  [%]
 
 
--------------------------------------------------------------------------------
  q-point number  8        q = ( 0.375000, 0.125000, 0.000000) [r.l.u.]
--------------------------------------------------------------------------------
  chi0(G,G') at the    1 th omega   0.0000   0.0000 [eV]
       1       2       3       4       5       6       7       8       9
    1 -13.500   0.152  -0.152   4.560   4.232   3.810   3.009   1.242  -1.291
        0.000   0.096   0.096   0.000  -0.000  -0.000  -0.000   0.000   0.000
 
    2   0.152 -20.735  -1.189  -3.656   3.732   3.761  -3.395  -2.306   0.822
       -0.096   0.000  -3.296   1.228  -1.542  -1.984   2.402   2.080  -1.208
 
  chi0(G,G') at the    2 th omega   0.0000  38.8177 [eV]
       1       2       3       4       5       6       7       8       9
    1  -2.201   0.004  -0.004   1.428   1.231   0.895   0.328  -0.234  -0.703
        0.000  -0.001  -0.001   0.000  -0.000   0.000   0.000  -0.000   0.000
 
    2   0.004  -4.724   0.109  -0.718   0.635   0.485  -0.224   0.035  -0.249
        0.001   0.000   0.056  -0.546   0.468   0.334  -0.117   0.085  -0.246
 
  Average fulfillment of the sum rule on Im[epsilon] for q-point    8 :     92.94  [%]
 
 
--------------------------------------------------------------------------------
  q-point number  9        q = ( 0.250000, 0.250000, 0.000000) [r.l.u.]
--------------------------------------------------------------------------------
  chi0(G,G') at the    1 th omega   0.0000   0.0000 [eV]
       1       2       3       4       5       6       7       8       9
    1 -13.045   0.000  -0.000   4.330   4.330   3.378   3.378  -0.184  -0.184
        0.000   0.000   0.000  -0.000  -0.000  -0.000  -0.000   0.000   0.000
 
    2   0.000 -20.596  -1.055  -3.688   3.688   3.640  -3.640  -1.522   1.522
       -0.000   0.000  -3.152   1.417  -1.417  -2.275   2.275   1.661  -1.661
 
  chi0(G,G') at the    2 th omega   0.0000  38.8177 [eV]
       1       2       3       4       5       6       7       8       9
    1  -2.046   0.000   0.000   1.299   1.299   0.588   0.588  -0.520  -0.520
        0.000   0.000  -0.000   0.000  -0.000   0.000   0.000  -0.000  -0.000
 
    2   0.000  -4.605   0.170  -0.664   0.664   0.347  -0.347   0.163  -0.163
       -0.000   0.000   0.101  -0.497   0.497   0.218  -0.218   0.183  -0.183
 
  Average fulfillment of the sum rule on Im[epsilon] for q-point    9 :     93.00  [%]
 
 
--------------------------------------------------------------------------------
  q-point number 10        q = ( 0.375000, 0.250000, 0.000000) [r.l.u.]
--------------------------------------------------------------------------------
  chi0(G,G') at the    1 th omega   0.0000   0.0000 [eV]
       1       2       3       4       5       6       7       8       9
    1 -16.677   0.089  -0.089   5.106   4.966   4.411   4.197   1.080  -0.268
        0.000   0.060   0.060   0.000  -0.000  -0.000  -0.000   0.000  -0.000
 
    2   0.089 -22.024  -2.026  -3.759   3.792   3.935  -3.838  -1.889   1.112
       -0.060   0.000  -4.609   1.050  -1.181  -2.041   2.298   1.852  -1.417
 
  chi0(G,G') at the    2 th omega   0.0000  38.8177 [eV]
       1       2       3       4       5       6       7       8       9
    1  -3.083   0.003  -0.003   1.686   1.603   1.008   0.753  -0.325  -0.569
        0.000  -0.001  -0.001   0.000  -0.000   0.000   0.000  -0.000  -0.000
 
    2   0.003  -5.400  -0.239  -0.826   0.792   0.528  -0.409   0.091  -0.202
        0.001   0.000  -0.204  -0.635   0.601   0.363  -0.263   0.124  -0.206
 
  Average fulfillment of the sum rule on Im[epsilon] for q-point   10 :     92.70  [%]
 
 
--------------------------------------------------------------------------------
  q-point number 11        q = ( 0.000000, 0.000000, 0.200000) [r.l.u.]
--------------------------------------------------------------------------------
  chi0(G,G') at the    1 th omega   0.0000   0.0000 [eV]
       1       2       3       4       5       6       7       8       9
    1  -1.565   0.000   0.000   0.409   0.409   0.409   0.409   0.409   0.409
        0.000   0.000  -0.000   0.043   0.043   0.043   0.043   0.043   0.043
 
    2   0.000 -18.151   1.321  -3.010   3.010   3.010  -3.010  -3.010   3.010
       -0.000   0.000   1.951   1.894  -1.894  -1.894   1.894   1.894  -1.894
 
  chi0(G,G') at the    2 th omega   0.0000  38.8177 [eV]
       1       2       3       4       5       6       7       8       9
    1  -0.139   0.000   0.000   0.040   0.040   0.040   0.040   0.040   0.040
        0.000   0.000  -0.000   0.002   0.002   0.002   0.002   0.002   0.002
 
    2   0.000  -4.130   0.940  -0.226   0.226   0.226  -0.226  -0.226   0.226
       -0.000   0.000   0.678  -0.113   0.113   0.113  -0.113  -0.113   0.113
 
  Average fulfillment of the sum rule on Im[epsilon] for q-point   11 :     98.76  [%]
 
 
--------------------------------------------------------------------------------
  q-point number 12        q = ( 0.125000, 0.000000, 0.200000) [r.l.u.]
--------------------------------------------------------------------------------
  chi0(G,G') at the    1 th omega   0.0000   0.0000 [eV]
       1       2       3       4       5       6       7       8       9
    1  -3.281   0.007  -0.012   1.667   1.311   1.311   0.296   0.296  -0.476
        0.000  -0.001   0.009   0.009   0.031   0.031   0.068   0.068   0.076
 
    2   0.007 -18.769   1.050  -3.394   3.322   3.322  -2.925  -2.925   2.549
        0.001   0.000   1.216   1.868  -1.971  -1.971   1.968   1.968  -1.811
 
  chi0(G,G') at the    2 th omega   0.0000  38.8177 [eV]
       1       2       3       4       5       6       7       8       9
    1  -0.321   0.000  -0.000   0.411   0.257   0.257  -0.084  -0.084  -0.276
        0.000  -0.000  -0.000   0.002   0.002   0.002   0.002   0.002   0.002
 
    2   0.000  -4.256   0.867  -0.382   0.316   0.316  -0.168  -0.168   0.085
        0.000   0.000   0.624  -0.242   0.187   0.187  -0.066  -0.066   0.000
 
  Average fulfillment of the sum rule on Im[epsilon] for q-point   12 :     97.36  [%]
 
 
--------------------------------------------------------------------------------
  q-point number 13        q = ( 0.250000, 0.000000, 0.200000) [r.l.u.]
--------------------------------------------------------------------------------
  chi0(G,G') at the    1 th omega   0.0000   0.0000 [eV]
       1       2       3       4       5       6       7       8       9
    1  -7.085   0.031  -0.067   2.965   2.494   2.494   0.847   0.847  -1.017
        0.000  -0.006   0.048  -0.007   0.027   0.027   0.089   0.089   0.078
 
    2   0.031 -20.140   0.355  -3.649   3.684   3.684  -3.053  -3.053   2.081
        0.006   0.000  -0.452   1.699  -2.023  -2.023   2.163   2.163  -1.669
 
  chi0(G,G') at the    2 th omega   0.0000  38.8177 [eV]
       1       2       3       4       5       6       7       8       9
    1  -0.854   0.002  -0.001   0.814   0.548   0.548  -0.104  -0.104  -0.516
        0.000  -0.001  -0.000   0.002   0.002   0.002   0.002   0.002   0.001
 
    2   0.002  -4.623   0.655  -0.546   0.433   0.433  -0.149  -0.149  -0.032
        0.001   0.000   0.464  -0.380   0.283   0.283  -0.051  -0.051  -0.089
 
  Average fulfillment of the sum rule on Im[epsilon] for q-point   13 :     94.98  [%]
 
 
--------------------------------------------------------------------------------
  q-point number 14        q = ( 0.375000, 0.000000, 0.200000) [r.l.u.]
--------------------------------------------------------------------------------
  chi0(G,G') at the    1 th omega   0.0000   0.0000 [eV]
       1       2       3       4       5       6       7       8       9
    1 -11.321   0.070  -0.160   4.061   3.566   3.566   1.743   1.743  -1.314
        0.000   0.002   0.117  -0.010   0.019   0.019   0.095   0.095   0.048
 
    2   0.070 -21.582  -0.576  -3.787   3.952   3.952  -3.267  -3.267   1.644
       -0.002   0.000  -2.284   1.418  -1.925  -1.925   2.331   2.331  -1.499
 
  chi0(G,G') at the    2 th omega   0.0000  38.8177 [eV]
       1       2       3       4       5       6       7       8       9
    1  -1.690   0.004  -0.002   1.227   0.889   0.889  -0.017  -0.017  -0.667
        0.000  -0.002  -0.001   0.002   0.002   0.002   0.002   0.002   0.001
 
    2   0.004  -5.199   0.322  -0.710   0.569   0.569  -0.170  -0.170  -0.117
        0.002   0.000   0.216  -0.520   0.393   0.393  -0.068  -0.068  -0.149
 
  Average fulfillment of the sum rule on Im[epsilon] for q-point   14 :     93.38  [%]
 
 
--------------------------------------------------------------------------------
  q-point number 15        q = ( 0.500000, 0.000000, 0.200000) [r.l.u.]
--------------------------------------------------------------------------------
  chi0(G,G') at the    1 th omega   0.0000   0.0000 [eV]
       1       2       3       4       5       6       7       8       9
    1 -15.244   0.120  -0.260   4.909   4.425   4.425   2.783   2.783  -1.410
        0.000   0.036   0.197  -0.007   0.008   0.008   0.085   0.085   0.000
 
    2   0.120 -22.782  -1.612  -3.848   4.088   4.088  -3.476  -3.476   1.247
       -0.036   0.000  -3.892   1.077  -1.673  -1.673   2.379   2.379  -1.303
 
  chi0(G,G') at the    2 th omega   0.0000  38.8177 [eV]
       1       2       3       4       5       6       7       8       9
    1  -2.762   0.009  -0.004   1.628   1.257   1.257   0.170   0.170  -0.718
        0.000  -0.003  -0.002   0.001   0.002   0.002   0.001   0.001   0.000
 
    2   0.009  -5.939  -0.103  -0.867   0.715   0.715  -0.232  -0.232  -0.162
        0.003   0.000  -0.101  -0.653   0.512   0.512  -0.117  -0.117  -0.174
 
  Average fulfillment of the sum rule on Im[epsilon] for q-point   15 :     92.87  [%]
 
 
--------------------------------------------------------------------------------
  q-point number 16        q = ( 0.125000, 0.125000, 0.200000) [r.l.u.]
--------------------------------------------------------------------------------
  chi0(G,G') at the    1 th omega   0.0000   0.0000 [eV]
       1       2       3       4       5       6       7       8       9
    1  -5.994   0.000   0.000   2.525   2.525   1.580   1.580  -0.391  -0.391
        0.000   0.000  -0.000   0.003   0.003   0.063   0.063   0.085   0.085
 
    2   0.000 -19.753   0.570  -3.610   3.610   3.423  -3.423  -2.469   2.469
       -0.000   0.000   0.026   1.842  -1.842  -2.163   2.163   1.864  -1.864
 
  chi0(G,G') at the    2 th omega   0.0000  38.8177 [eV]
       1       2       3       4       5       6       7       8       9
    1  -0.679   0.000   0.000   0.642   0.642   0.196   0.196  -0.361  -0.361
        0.000   0.000  -0.000   0.002   0.002   0.002   0.002   0.002   0.002
 
    2   0.000  -4.502   0.724  -0.476   0.476   0.283  -0.283  -0.040   0.040
       -0.000   0.000   0.517  -0.320   0.320   0.159  -0.159   0.034  -0.034
 
  Average fulfillment of the sum rule on Im[epsilon] for q-point   16 :     95.58  [%]
 
 
--------------------------------------------------------------------------------
  q-point number 17        q = ( 0.250000, 0.125000, 0.200000) [r.l.u.]
--------------------------------------------------------------------------------
  chi0(G,G') at the    1 th omega   0.0000   0.0000 [eV]
       1       2       3       4       5       6       7       8       9
    1  -9.911   0.029  -0.066   3.665   3.486   2.861   2.248   0.335  -0.805
        0.000  -0.002   0.048  -0.009   0.000   0.054   0.085   0.086   0.068
 
    2   0.029 -21.128  -0.236  -3.780   3.842   3.836  -3.609  -2.622   2.019
        0.002   0.000  -1.694   1.595  -1.778  -2.194   2.343   2.048  -1.707
 
  chi0(G,G') at the    2 th omega   0.0000  38.8177 [eV]
       1       2       3       4       5       6       7       8       9
    1  -1.363   0.002  -0.001   1.048   0.932   0.541   0.232  -0.332  -0.555
        0.000  -0.001  -0.000   0.002   0.002   0.002   0.002   0.001   0.001
 
    2   0.002  -4.974   0.452  -0.639   0.590   0.422  -0.287  -0.038  -0.061
        0.001   0.000   0.313  -0.459   0.415   0.271  -0.160   0.034  -0.109
 
  Average fulfillment of the sum rule on Im[epsilon] for q-point   17 :     93.83  [%]
 
 
--------------------------------------------------------------------------------
  q-point number 18        q = ( 0.375000, 0.125000, 0.200000) [r.l.u.]
--------------------------------------------------------------------------------
  chi0(G,G') at the    1 th omega   0.0000   0.0000 [eV]
       1       2       3       4       5       6       7       8       9
    1 -13.889   0.072  -0.163   4.596   4.322   3.926   3.112   1.387  -1.000
        0.000   0.014   0.122  -0.011  -0.007   0.040   0.092   0.073   0.026
 
    2   0.072 -22.416  -1.213  -3.860   3.996   4.092  -3.798  -2.864   1.605
       -0.014   0.000  -3.383   1.270  -1.598  -2.025   2.423   2.196  -1.525
 
  chi0(G,G') at the    2 th omega   0.0000  38.8177 [eV]
       1       2       3       4       5       6       7       8       9
    1  -2.316   0.005  -0.002   1.452   1.257   0.925   0.365  -0.191  -0.655
        0.000  -0.002  -0.001   0.002   0.002   0.002   0.002   0.001   0.000
 
    2   0.005  -5.631   0.074  -0.799   0.719   0.576  -0.328  -0.080  -0.125
        0.002   0.000   0.030  -0.594   0.521   0.395  -0.192  -0.001  -0.151
 
  Average fulfillment of the sum rule on Im[epsilon] for q-point   18 :     92.90  [%]
 
 
--------------------------------------------------------------------------------
  q-point number 19        q = ( 0.250000, 0.250000, 0.200000) [r.l.u.]
--------------------------------------------------------------------------------
  chi0(G,G') at the    1 th omega   0.0000   0.0000 [eV]
       1       2       3       4       5       6       7       8       9
    1 -13.463   0.000   0.000   4.397   4.397   3.497   3.497   0.041   0.041
        0.000   0.000  -0.000  -0.012  -0.012   0.073   0.073   0.051   0.051
 
    2   0.000 -22.314  -1.079  -3.918   3.918   4.007  -4.007  -2.199   2.199
       -0.000   0.000  -3.238   1.462  -1.462  -2.298   2.298   1.876  -1.876
 
  chi0(G,G') at the    2 th omega   0.0000  38.8177 [eV]
       1       2       3       4       5       6       7       8       9
    1  -2.163   0.000   0.000   1.325   1.325   0.622   0.622  -0.475  -0.475
        0.000   0.000  -0.000   0.002   0.002   0.002   0.002   0.001   0.001
 
    2   0.000  -5.526   0.135  -0.748   0.748   0.445  -0.445   0.042  -0.042
       -0.000   0.000   0.076  -0.549   0.549   0.286  -0.286   0.091  -0.091
 
  Average fulfillment of the sum rule on Im[epsilon] for q-point   19 :     92.95  [%]
 
 
--------------------------------------------------------------------------------
  q-point number 20        q = ( 0.375000, 0.250000, 0.200000) [r.l.u.]
--------------------------------------------------------------------------------
  chi0(G,G') at the    1 th omega   0.0000   0.0000 [eV]
       1       2       3       4       5       6       7       8       9
    1 -16.927   0.045  -0.093   5.130   5.018   4.492   4.258   1.207  -0.054
        0.000   0.017   0.071  -0.014  -0.018   0.056   0.079   0.027  -0.000
 
    2   0.045 -23.375  -2.044  -3.939   3.995   4.230  -4.149  -2.479   1.822
       -0.017   0.000  -4.681   1.107  -1.246  -2.058   2.292   2.009  -1.683
 
  chi0(G,G') at the    2 th omega   0.0000  38.8177 [eV]
       1       2       3       4       5       6       7       8       9
    1  -3.189   0.004  -0.002   1.707   1.625   1.037   0.785  -0.282  -0.523
        0.000  -0.001  -0.001   0.001   0.001   0.002   0.002   0.000  -0.000
 
    2   0.004  -6.234  -0.271  -0.899   0.866   0.614  -0.501  -0.022  -0.085
        0.001   0.000  -0.227  -0.677   0.645   0.421  -0.328   0.037  -0.115
 
  Average fulfillment of the sum rule on Im[epsilon] for q-point   20 :     92.68  [%]
 
 
--------------------------------------------------------------------------------
  q-point number 21        q = ( 0.000000, 0.000000, 0.400000) [r.l.u.]
--------------------------------------------------------------------------------
  chi0(G,G') at the    1 th omega   0.0000   0.0000 [eV]
       1       2       3       4       5       6       7       8       9
    1  -4.994   0.000   0.000   1.307   1.307   1.307   1.307   1.307   1.307
        0.000   0.000  -0.000   0.073   0.073   0.073   0.073   0.073   0.073
 
    2   0.000 -20.309   1.209  -3.377   3.377   3.377  -3.377  -3.377   3.377
       -0.000   0.000   1.708   1.785  -1.785  -1.785   1.785   1.785  -1.785
 
  chi0(G,G') at the    2 th omega   0.0000  38.8177 [eV]
       1       2       3       4       5       6       7       8       9
    1  -0.545   0.000   0.000   0.157   0.157   0.157   0.157   0.157   0.157
        0.000   0.000  -0.000   0.004   0.004   0.004   0.004   0.004   0.004
 
    2   0.000  -5.265   0.813  -0.362   0.362   0.362  -0.362  -0.362   0.362
       -0.000   0.000   0.586  -0.212   0.212   0.212  -0.212  -0.212   0.212
 
  Average fulfillment of the sum rule on Im[epsilon] for q-point   21 :     96.52  [%]
 
 
--------------------------------------------------------------------------------
  q-point number 22        q = ( 0.125000, 0.000000, 0.400000) [r.l.u.]
--------------------------------------------------------------------------------
  chi0(G,G') at the    1 th omega   0.0000   0.0000 [eV]
       1       2       3       4       5       6       7       8       9
    1  -6.314  -0.000  -0.004   2.335   2.043   2.043   1.165   1.165   0.501
        0.000  -0.007   0.004   0.021   0.054   0.054   0.111   0.111   0.123
 
    2  -0.000 -20.834   0.938  -3.671   3.640   3.640  -3.339  -3.339   3.031
        0.007   0.000   0.962   1.740  -1.852  -1.852   1.886   1.886  -1.771
 
  chi0(G,G') at the    2 th omega   0.0000  38.8177 [eV]
       1       2       3       4       5       6       7       8       9
    1  -0.722   0.000  -0.000   0.516   0.367   0.367   0.037   0.037  -0.148
        0.000  -0.000  -0.000   0.005   0.005   0.005   0.004   0.004   0.004
 
    2   0.000  -5.375   0.742  -0.508   0.446   0.446  -0.308  -0.308   0.230
        0.000   0.000   0.533  -0.330   0.280   0.280  -0.168  -0.168   0.108
 
  Average fulfillment of the sum rule on Im[epsilon] for q-point   22 :     95.86  [%]
 
 
--------------------------------------------------------------------------------
  q-point number 23        q = ( 0.250000, 0.000000, 0.400000) [r.l.u.]
--------------------------------------------------------------------------------
  chi0(G,G') at the    1 th omega   0.0000   0.0000 [eV]
       1       2       3       4       5       6       7       8       9
    1  -9.353  -0.005  -0.028   3.371   3.021   3.021   1.548   1.548  -0.058
        0.000  -0.039   0.022  -0.006   0.044   0.044   0.151   0.151   0.129
 
    2  -0.005 -21.966   0.249  -3.861   3.965   3.965  -3.493  -3.493   2.690
        0.039   0.000  -0.719   1.587  -1.914  -1.914   2.101   2.101  -1.731
 
  chi0(G,G') at the    2 th omega   0.0000  38.8177 [eV]
       1       2       3       4       5       6       7       8       9
    1  -1.238   0.002  -0.000   0.906   0.649   0.649   0.018   0.018  -0.381
        0.000  -0.001  -0.000   0.005   0.005   0.005   0.004   0.004   0.003
 
    2   0.002  -5.694   0.535  -0.659   0.553   0.553  -0.288  -0.288   0.118
        0.001   0.000   0.378  -0.457   0.367   0.367  -0.154  -0.154   0.025
 
  Average fulfillment of the sum rule on Im[epsilon] for q-point   23 :     94.45  [%]
 
 
--------------------------------------------------------------------------------
  q-point number 24        q = ( 0.375000, 0.000000, 0.400000) [r.l.u.]
--------------------------------------------------------------------------------
  chi0(G,G') at the    1 th omega   0.0000   0.0000 [eV]
       1       2       3       4       5       6       7       8       9
    1 -12.850  -0.017  -0.070   4.259   3.943   3.943   2.219   2.219  -0.393
        0.000  -0.076   0.055  -0.014   0.030   0.030   0.168   0.168   0.081
 
    2  -0.017 -23.105  -0.670  -3.954   4.207   4.207  -3.699  -3.699   2.372
        0.076   0.000  -2.544   1.338  -1.843  -1.843   2.271   2.271  -1.671
 
  chi0(G,G') at the    2 th omega   0.0000  38.8177 [eV]
       1       2       3       4       5       6       7       8       9
    1  -2.047   0.005  -0.001   1.305   0.979   0.979   0.102   0.102  -0.527
        0.000  -0.002  -0.000   0.004   0.004   0.004   0.003   0.003   0.001
 
    2   0.005  -6.197   0.211  -0.809   0.676   0.676  -0.305  -0.305   0.035
        0.002   0.000   0.136  -0.584   0.468   0.468  -0.169  -0.169  -0.032
 
  Average fulfillment of the sum rule on Im[epsilon] for q-point   24 :     93.25  [%]
 
 
--------------------------------------------------------------------------------
  q-point number 25        q = ( 0.500000, 0.000000, 0.400000) [r.l.u.]
--------------------------------------------------------------------------------
  chi0(G,G') at the    1 th omega   0.0000   0.0000 [eV]
       1       2       3       4       5       6       7       8       9
    1 -16.189  -0.021  -0.115   4.963   4.710   4.710   3.024   3.024  -0.506
        0.000  -0.089   0.091  -0.011   0.012   0.012   0.157   0.157   0.000
 
    2  -0.021 -23.990  -1.689  -3.987   4.322   4.322  -3.865  -3.865   2.070
        0.089   0.000  -4.127   1.035  -1.627  -1.627   2.302   2.302  -1.570
 
  chi0(G,G') at the    2 th omega   0.0000  38.8177 [eV]
       1       2       3       4       5       6       7       8       9
    1  -3.086   0.010  -0.001   1.692   1.335   1.335   0.282   0.282  -0.576
        0.000  -0.004  -0.001   0.003   0.004   0.004   0.002   0.002   0.000
 
    2   0.010  -6.842  -0.202  -0.953   0.809   0.809  -0.358  -0.358  -0.013
        0.004   0.000  -0.173  -0.706   0.576   0.576  -0.213  -0.213  -0.057
 
  Average fulfillment of the sum rule on Im[epsilon] for q-point   25 :     92.83  [%]
 
 
--------------------------------------------------------------------------------
  q-point number 26        q = ( 0.125000, 0.125000, 0.400000) [r.l.u.]
--------------------------------------------------------------------------------
  chi0(G,G') at the    1 th omega   0.0000   0.0000 [eV]
       1       2       3       4       5       6       7       8       9
    1  -8.471   0.000   0.000   3.030   3.030   2.232   2.232   0.499   0.499
        0.000   0.000  -0.000   0.009   0.009   0.105   0.105   0.141   0.141
 
    2   0.000 -21.651   0.462  -3.855   3.855   3.775  -3.775  -2.999   2.999
       -0.000   0.000  -0.239   1.725  -1.725  -2.060   2.060   1.862  -1.862
 
  chi0(G,G') at the    2 th omega   0.0000  38.8177 [eV]
       1       2       3       4       5       6       7       8       9
    1  -1.068   0.000   0.000   0.740   0.740   0.308   0.308  -0.231  -0.231
        0.000   0.000  -0.000   0.005   0.005   0.004   0.004   0.003   0.003
 
    2   0.000  -5.589   0.603  -0.594   0.594   0.414  -0.414  -0.186   0.186
       -0.000   0.000   0.429  -0.402   0.402   0.253  -0.253  -0.075   0.075
 
  Average fulfillment of the sum rule on Im[epsilon] for q-point   26 :     94.85  [%]
 
 
--------------------------------------------------------------------------------
  q-point number 27        q = ( 0.250000, 0.125000, 0.400000) [r.l.u.]
--------------------------------------------------------------------------------
  chi0(G,G') at the    1 th omega   0.0000   0.0000 [eV]
       1       2       3       4       5       6       7       8       9
    1 -11.680  -0.007  -0.029   3.954   3.846   3.320   2.741   1.019   0.055
        0.000  -0.034   0.022  -0.012  -0.000   0.091   0.148   0.148   0.115
 
    2  -0.007 -22.756  -0.335  -3.971   4.066   4.140  -3.972  -3.162   2.666
        0.034   0.000  -1.958   1.503  -1.687  -2.094   2.248   2.059  -1.807
 
  chi0(G,G') at the    2 th omega   0.0000  38.8177 [eV]
       1       2       3       4       5       6       7       8       9
    1  -1.731   0.002  -0.000   1.132   1.020   0.642   0.343  -0.203  -0.419
        0.000  -0.001  -0.000   0.004   0.004   0.004   0.004   0.003   0.002
 
    2   0.002  -6.000   0.338  -0.744   0.698   0.541  -0.415  -0.182   0.089
        0.001   0.000   0.231  -0.528   0.488   0.356  -0.254  -0.074   0.006
 
  Average fulfillment of the sum rule on Im[epsilon] for q-point   27 :     93.61  [%]
 
 
--------------------------------------------------------------------------------
  q-point number 28        q = ( 0.375000, 0.125000, 0.400000) [r.l.u.]
--------------------------------------------------------------------------------
  chi0(G,G') at the    1 th omega   0.0000   0.0000 [eV]
       1       2       3       4       5       6       7       8       9
    1 -15.035  -0.016  -0.072   4.721   4.589   4.255   3.412   1.818  -0.169
        0.000  -0.065   0.056  -0.017  -0.014   0.069   0.166   0.132   0.044
 
    2  -0.016 -23.736  -1.296  -4.013   4.205   4.358  -4.138  -3.371   2.354
        0.065   0.000  -3.624   1.213  -1.543  -1.947   2.323   2.193  -1.722
 
  chi0(G,G') at the    2 th omega   0.0000  38.8177 [eV]
       1       2       3       4       5       6       7       8       9
    1  -2.654   0.006  -0.001   1.523   1.335   1.014   0.471  -0.067  -0.516
        0.000  -0.002  -0.000   0.003   0.004   0.004   0.003   0.002   0.001
 
    2   0.006  -6.573  -0.030  -0.890   0.815   0.681  -0.450  -0.217   0.024
        0.002   0.000  -0.044  -0.652   0.584   0.469  -0.282  -0.106  -0.035
 
  Average fulfillment of the sum rule on Im[epsilon] for q-point   28 :     92.85  [%]
 
 
--------------------------------------------------------------------------------
  q-point number 29        q = ( 0.250000, 0.250000, 0.400000) [r.l.u.]
--------------------------------------------------------------------------------
  chi0(G,G') at the    1 th omega   0.0000   0.0000 [eV]
       1       2       3       4       5       6       7       8       9
    1 -14.683   0.000   0.000   4.602   4.602   3.830   3.830   0.690   0.690
        0.000   0.000  -0.000  -0.022  -0.022   0.129   0.129   0.090   0.090
 
    2   0.000 -23.668  -1.163  -4.097   4.097   4.306  -4.306  -2.832   2.832
       -0.000   0.000  -3.480   1.400  -1.400  -2.198   2.198   1.972  -1.972
 
  chi0(G,G') at the    2 th omega   0.0000  38.8177 [eV]
       1       2       3       4       5       6       7       8       9
    1  -2.505   0.000   0.000   1.400   1.400   0.720   0.720  -0.341  -0.341
        0.000   0.000  -0.000   0.004   0.004   0.004   0.004   0.001   0.001
 
    2   0.000  -6.481   0.029  -0.843   0.843   0.559  -0.559  -0.103   0.103
       -0.000   0.000  -0.000  -0.610   0.610   0.369  -0.369  -0.021   0.021
 
  Average fulfillment of the sum rule on Im[epsilon] for q-point   29 :     92.89  [%]
 
 
--------------------------------------------------------------------------------
  q-point number 30        q = ( 0.375000, 0.250000, 0.400000) [r.l.u.]
--------------------------------------------------------------------------------
  chi0(G,G') at the    1 th omega   0.0000   0.0000 [eV]
       1       2       3       4       5       6       7       8       9
    1 -17.693  -0.006  -0.041   5.217   5.178   4.726   4.445   1.605   0.579
        0.000  -0.028   0.032  -0.026  -0.034   0.101   0.145   0.050  -0.000
 
    2  -0.006 -24.425  -2.108  -4.082   4.163   4.477  -4.412  -3.044   2.522
        0.028   0.000  -4.880   1.079  -1.219  -1.971   2.179   2.063  -1.848
 
  chi0(G,G') at the    2 th omega   0.0000  38.8177 [eV]
       1       2       3       4       5       6       7       8       9
    1  -3.499   0.004  -0.001   1.770   1.691   1.123   0.878  -0.155  -0.388
        0.000  -0.001  -0.000   0.002   0.003   0.004   0.004   0.001  -0.000
 
    2   0.004  -7.098  -0.366  -0.981   0.950   0.714  -0.608  -0.159   0.058
        0.001   0.000  -0.295  -0.726   0.698   0.492  -0.407  -0.069  -0.003
 
  Average fulfillment of the sum rule on Im[epsilon] for q-point   30 :     92.66  [%]
 
== END DATASET(S) ==============================================================
================================================================================
  
 -outvars: echo values of variables after computation  --------
            acell      6.1404760962E+00  6.1404760962E+00  9.8337568503E+00 Bohr
              amu      6.53900000E+01  1.59994000E+01
           diemac      1.20000000E+01
             ecut      4.00000000E+01 Hartree
          ecuteps      4.00000000E+00 Hartree
         ecutsigx      4.00000000E+01 Hartree
          ecutwfn      4.00000000E+01 Hartree
           etotal3     0.0000000000E+00
            fcart3     0.0000000000E+00  0.0000000000E+00  0.0000000000E+00
                       0.0000000000E+00  0.0000000000E+00  0.0000000000E+00
                       0.0000000000E+00  0.0000000000E+00  0.0000000000E+00
                       0.0000000000E+00  0.0000000000E+00  0.0000000000E+00
-          fftalg         512
           getwfk           2
           istwfk        1    0    0    0    1    0    0    0    0    0
                         0    0    0    0    0    0    0    0    0    0
                         0    0    0    0    0    0    0    0    0    0
              ixc     -116133
           jdtset        3
              kpt      0.00000000E+00  0.00000000E+00  0.00000000E+00
                       1.25000000E-01  0.00000000E+00  0.00000000E+00
                       2.50000000E-01  0.00000000E+00  0.00000000E+00
                       3.75000000E-01  0.00000000E+00  0.00000000E+00
                       5.00000000E-01  0.00000000E+00  0.00000000E+00
                       1.25000000E-01  1.25000000E-01  0.00000000E+00
                       2.50000000E-01  1.25000000E-01  0.00000000E+00
                       3.75000000E-01  1.25000000E-01  0.00000000E+00
                       2.50000000E-01  2.50000000E-01  0.00000000E+00
                       3.75000000E-01  2.50000000E-01  0.00000000E+00
                       0.00000000E+00  0.00000000E+00  2.00000000E-01
                       1.25000000E-01  0.00000000E+00  2.00000000E-01
                       2.50000000E-01  0.00000000E+00  2.00000000E-01
                       3.75000000E-01  0.00000000E+00  2.00000000E-01
                       5.00000000E-01  0.00000000E+00  2.00000000E-01
                       1.25000000E-01  1.25000000E-01  2.00000000E-01
                       2.50000000E-01  1.25000000E-01  2.00000000E-01
                       3.75000000E-01  1.25000000E-01  2.00000000E-01
                       2.50000000E-01  2.50000000E-01  2.00000000E-01
                       3.75000000E-01  2.50000000E-01  2.00000000E-01
                       0.00000000E+00  0.00000000E+00  4.00000000E-01
                       1.25000000E-01  0.00000000E+00  4.00000000E-01
                       2.50000000E-01  0.00000000E+00  4.00000000E-01
                       3.75000000E-01  0.00000000E+00  4.00000000E-01
                       5.00000000E-01  0.00000000E+00  4.00000000E-01
                       1.25000000E-01  1.25000000E-01  4.00000000E-01
                       2.50000000E-01  1.25000000E-01  4.00000000E-01
                       3.75000000E-01  1.25000000E-01  4.00000000E-01
                       2.50000000E-01  2.50000000E-01  4.00000000E-01
                       3.75000000E-01  2.50000000E-01  4.00000000E-01
         kptrlatt        8    0    0      0    8    0      0    0    5
          kptrlen      4.91238088E+01
P           mkmem           1
            natom           4
            nband         500
           ndtset           1
            ngfft          36      36      60
             nkpt          30
           npweps         135
          npwsigx        3909
           npwwfn        3909
            nstep         200
             nsym          12
           ntypat           2
              occ      2.000000  2.000000  2.000000  2.000000  2.000000  2.000000
                       2.000000  2.000000  2.000000  2.000000  2.000000  2.000000
                       2.000000  2.000000  2.000000  2.000000  2.000000  2.000000
                       2.000000  2.000000  2.000000  2.000000  2.000000  2.000000
                       2.000000  2.000000  0.000000  0.000000  0.000000  0.000000
                       0.000000  0.000000  0.000000  0.000000  0.000000  0.000000
                       0.000000  0.000000  0.000000  0.000000  0.000000  0.000000
                       0.000000  0.000000  0.000000  0.000000  0.000000  0.000000
                       0.000000  0.000000  0.000000  0.000000  0.000000  0.000000
                       0.000000  0.000000  0.000000  0.000000  0.000000  0.000000
                       0.000000  0.000000  0.000000  0.000000  0.000000  0.000000
                       0.000000  0.000000  0.000000  0.000000  0.000000  0.000000
                       0.000000  0.000000  0.000000  0.000000  0.000000  0.000000
                       0.000000  0.000000  0.000000  0.000000  0.000000  0.000000
                       0.000000  0.000000  0.000000  0.000000  0.000000  0.000000
                       0.000000  0.000000  0.000000  0.000000  0.000000  0.000000
                       0.000000  0.000000  0.000000  0.000000  0.000000  0.000000
                       0.000000  0.000000  0.000000  0.000000  0.000000  0.000000
                       0.000000  0.000000  0.000000  0.000000  0.000000  0.000000
                       0.000000  0.000000  0.000000  0.000000  0.000000  0.000000
                       0.000000  0.000000  0.000000  0.000000  0.000000  0.000000
                       0.000000  0.000000  0.000000  0.000000  0.000000  0.000000
                       0.000000  0.000000  0.000000  0.000000  0.000000  0.000000
                       0.000000  0.000000  0.000000  0.000000  0.000000  0.000000
                       0.000000  0.000000  0.000000  0.000000  0.000000  0.000000
                       0.000000  0.000000  0.000000  0.000000  0.000000  0.000000
                       0.000000  0.000000  0.000000  0.000000  0.000000  0.000000
                       0.000000  0.000000  0.000000  0.000000  0.000000  0.000000
                       0.000000  0.000000  0.000000  0.000000  0.000000  0.000000
                       0.000000  0.000000  0.000000  0.000000  0.000000  0.000000
                       0.000000  0.000000  0.000000  0.000000  0.000000  0.000000
                       0.000000  0.000000  0.000000  0.000000  0.000000  0.000000
                       0.000000  0.000000  0.000000  0.000000  0.000000  0.000000
                       0.000000  0.000000  0.000000  0.000000  0.000000  0.000000
                       0.000000  0.000000  0.000000  0.000000  0.000000  0.000000
                       0.000000  0.000000  0.000000  0.000000  0.000000  0.000000
                       0.000000  0.000000  0.000000  0.000000  0.000000  0.000000
                       0.000000  0.000000  0.000000  0.000000  0.000000  0.000000
                       0.000000  0.000000  0.000000  0.000000  0.000000  0.000000
                       0.000000  0.000000  0.000000  0.000000  0.000000  0.000000
                       0.000000  0.000000  0.000000  0.000000  0.000000  0.000000
                       0.000000  0.000000  0.000000  0.000000  0.000000  0.000000
                       0.000000  0.000000  0.000000  0.000000  0.000000  0.000000
                       0.000000  0.000000  0.000000  0.000000  0.000000  0.000000
                       0.000000  0.000000  0.000000  0.000000  0.000000  0.000000
                       0.000000  0.000000  0.000000  0.000000  0.000000  0.000000
                       0.000000  0.000000  0.000000  0.000000  0.000000  0.000000
                       0.000000  0.000000  0.000000  0.000000  0.000000  0.000000
                       0.000000  0.000000  0.000000  0.000000  0.000000  0.000000
                       0.000000  0.000000  0.000000  0.000000  0.000000  0.000000
                       0.000000  0.000000  0.000000  0.000000  0.000000  0.000000
                       0.000000  0.000000  0.000000  0.000000  0.000000  0.000000
                       0.000000  0.000000  0.000000  0.000000  0.000000  0.000000
                       0.000000  0.000000  0.000000  0.000000  0.000000  0.000000
                       0.000000  0.000000  0.000000  0.000000  0.000000  0.000000
                       0.000000  0.000000  0.000000  0.000000  0.000000  0.000000
                       0.000000  0.000000  0.000000  0.000000  0.000000  0.000000
                       0.000000  0.000000  0.000000  0.000000  0.000000  0.000000
                       0.000000  0.000000  0.000000  0.000000  0.000000  0.000000
                       0.000000  0.000000  0.000000  0.000000  0.000000  0.000000
                       0.000000  0.000000  0.000000  0.000000  0.000000  0.000000
                       0.000000  0.000000  0.000000  0.000000  0.000000  0.000000
                       0.000000  0.000000  0.000000  0.000000  0.000000  0.000000
                       0.000000  0.000000  0.000000  0.000000  0.000000  0.000000
                       0.000000  0.000000  0.000000  0.000000  0.000000  0.000000
                       0.000000  0.000000  0.000000  0.000000  0.000000  0.000000
                       0.000000  0.000000  0.000000  0.000000  0.000000  0.000000
                       0.000000  0.000000  0.000000  0.000000  0.000000  0.000000
                       0.000000  0.000000  0.000000  0.000000  0.000000  0.000000
                       0.000000  0.000000  0.000000  0.000000  0.000000  0.000000
                       0.000000  0.000000  0.000000  0.000000  0.000000  0.000000
                       0.000000  0.000000  0.000000  0.000000  0.000000  0.000000
                       0.000000  0.000000  0.000000  0.000000  0.000000  0.000000
                       0.000000  0.000000  0.000000  0.000000  0.000000  0.000000
                       0.000000  0.000000  0.000000  0.000000  0.000000  0.000000
                       0.000000  0.000000  0.000000  0.000000  0.000000  0.000000
                       0.000000  0.000000  0.000000  0.000000  0.000000  0.000000
                       0.000000  0.000000  0.000000  0.000000  0.000000  0.000000
                       0.000000  0.000000  0.000000  0.000000  0.000000  0.000000
                       0.000000  0.000000  0.000000  0.000000  0.000000  0.000000
                       0.000000  0.000000  0.000000  0.000000  0.000000  0.000000
                       0.000000  0.000000  0.000000  0.000000  0.000000  0.000000
                       0.000000  0.000000  0.000000  0.000000  0.000000  0.000000
                       0.000000  0.000000
        optdriver           3
            rprim      1.0000000000E+00  0.0000000000E+00  0.0000000000E+00
                      -5.0000000000E-01  8.6602540378E-01  0.0000000000E+00
                       6.1232339957E-17  1.0605752387E-16  1.0000000000E+00
          spgroup         186
           strten3     0.0000000000E+00  0.0000000000E+00  0.0000000000E+00
                       0.0000000000E+00  0.0000000000E+00  0.0000000000E+00
           symrel      1  0  0   0  1  0   0  0  1       0  1  0   1  0  0   0  0  1
                       1  1  0  -1  0  0   0  0  1      -1  0  0   1  1  0   0  0  1
                       0  1  0  -1 -1  0   0  0  1      -1 -1  0   0  1  0   0  0  1
                      -1  0  0   0 -1  0   0  0  1       0 -1  0  -1  0  0   0  0  1
                      -1 -1  0   1  0  0   0  0  1       1  0  0  -1 -1  0   0  0  1
                       0 -1  0   1  1  0   0  0  1       1  1  0   0 -1  0   0  0  1
            tnons      0.0000000  0.0000000  0.0000000     0.0000000 -0.0000000  0.5000000
                      -0.0000000 -0.0000000  0.5000000     0.0000000  0.0000000  0.0000000
                      -0.0000000 -0.0000000  0.0000000     0.0000000  0.0000000  0.5000000
                       0.0000000 -0.0000000  0.5000000    -0.0000000 -0.0000000  0.0000000
                       0.0000000 -0.0000000  0.0000000    -0.0000000 -0.0000000  0.5000000
                       0.0000000  0.0000000  0.5000000     0.0000000 -0.0000000  0.0000000
            typat      1  1  2  2
              wtk        0.00313    0.01875    0.01875    0.01875    0.00938    0.01875
                         0.03750    0.03750    0.01875    0.01875    0.00625    0.03750
                         0.03750    0.03750    0.01875    0.03750    0.07500    0.07500
                         0.03750    0.03750    0.00625    0.03750    0.03750    0.03750
                         0.01875    0.03750    0.07500    0.07500    0.03750    0.03750
           xangst      7.0500566530E-16  1.8760419647E+00  0.0000000000E+00
                       1.6247000000E+00  9.3802098235E-01  2.6019000000E+00
                       9.4000755373E-16  1.8760419647E+00  1.9883719800E+00
                       1.6247000000E+00  9.3802098235E-01  4.5902719800E+00
            xcart      1.3322676296E-15  3.5452055271E+00  0.0000000000E+00
                       3.0702380481E+00  1.7726027635E+00  4.9168784252E+00
                       1.7763568394E-15  3.5452055271E+00  3.7574784925E+00
                       3.0702380481E+00  1.7726027635E+00  8.6743569177E+00
             xred      3.3333333333E-01  6.6666666667E-01  0.0000000000E+00
                       6.6666666667E-01  3.3333333333E-01  5.0000000000E-01
                       3.3333333333E-01  6.6666666667E-01  3.8210000000E-01
                       6.6666666667E-01  3.3333333333E-01  8.8210000000E-01
            znucl       30.00000    8.00000
 
================================================================================


- Timing analysis has been suppressed with timopt=0



================================================================================

 Suggested references for the acknowledgment of ABINIT usage.

 The users of ABINIT have little formal obligations with respect to the ABINIT group
 (those specified in the GNU General Public License, http://www.gnu.org/copyleft/gpl.txt).
 However, it is common practice in the scientific literature,
 to acknowledge the efforts of people that have made the research possible.
 In this spirit, please find below suggested citations of work written by ABINIT developers,
 corresponding to implementations inside of ABINIT that you have used in the present run.
 Note also that it will be of great value to readers of publications presenting these results,
 to read papers enabling them to understand the theoretical formalism and details
 of the ABINIT implementation.
 For information on why they are suggested, see also https://docs.abinit.org/theory/acknowledgments.
-
- [1] Libxc: A library of exchange and correlation functionals for density functional theory.
- M.A.L. Marques, M.J.T. Oliveira, T. Burnus, Computer Physics Communications 183, 2227 (2012).
- Comment: to be cited when LibXC is used (negative value of ixc)
- Strong suggestion to cite this paper.
- DOI and bibtex: see https://docs.abinit.org/theory/bibliography/#marques2012
-
- [2] The Abinit project: Impact, environment and recent developments.
- Computer Phys. Comm. 248, 107042 (2020).
- X.Gonze, B. Amadon, G. Antonius, F.Arnardi, L.Baguet, J.-M.Beuken,
- J.Bieder, F.Bottin, J.Bouchet, E.Bousquet, N.Brouwer, F.Bruneval,
- G.Brunin, T.Cavignac, J.-B. Charraud, Wei Chen, M.Cote, S.Cottenier,
- J.Denier, G.Geneste, Ph.Ghosez, M.Giantomassi, Y.Gillet, O.Gingras,
- D.R.Hamann, G.Hautier, Xu He, N.Helbig, N.Holzwarth, Y.Jia, F.Jollet,
- W.Lafargue-Dit-Hauret, K.Lejaeghere, M.A.L.Marques, A.Martin, C.Martins,
- H.P.C. Miranda, F.Naccarato, K. Persson, G.Petretto, V.Planes, Y.Pouillon,
- S.Prokhorenko, F.Ricci, G.-M.Rignanese, A.H.Romero, M.M.Schmitt, M.Torrent,
- M.J.van Setten, B.Van Troeye, M.J.Verstraete, G.Zerah and J.W.Zwanzig
- Comment: the fifth generic paper describing the ABINIT project.
- Note that a version of this paper, that is not formatted for Computer Phys. Comm. 
- is available at https://www.abinit.org/sites/default/files/ABINIT20.pdf .
- The licence allows the authors to put it on the Web.
- DOI and bibtex: see https://docs.abinit.org/theory/bibliography/#gonze2020
-
- [3] Optimized norm-conserving Vanderbilt pseudopotentials.
- D.R. Hamann, Phys. Rev. B 88, 085117 (2013).
- Comment: Some pseudopotential generated using the ONCVPSP code were used.
- DOI and bibtex: see https://docs.abinit.org/theory/bibliography/#hamann2013
-
- [4] ABINIT: Overview, and focus on selected capabilities
- J. Chem. Phys. 152, 124102 (2020).
- A. Romero, D.C. Allan, B. Amadon, G. Antonius, T. Applencourt, L.Baguet,
- J.Bieder, F.Bottin, J.Bouchet, E.Bousquet, F.Bruneval,
- G.Brunin, D.Caliste, M.Cote,
- J.Denier, C. Dreyer, Ph.Ghosez, M.Giantomassi, Y.Gillet, O.Gingras,
- D.R.Hamann, G.Hautier, F.Jollet, G. Jomard,
- A.Martin, 
- H.P.C. Miranda, F.Naccarato, G.Petretto, N.A. Pike, V.Planes,
- S.Prokhorenko, T. Rangel, F.Ricci, G.-M.Rignanese, M.Royo, M.Stengel, M.Torrent,
- M.J.van Setten, B.Van Troeye, M.J.Verstraete, J.Wiktor, J.W.Zwanziger, and X.Gonze.
- Comment: a global overview of ABINIT, with focus on selected capabilities .
- Note that a version of this paper, that is not formatted for J. Chem. Phys 
- is available at https://www.abinit.org/sites/default/files/ABINIT20_JPC.pdf .
- The licence allows the authors to put it on the Web.
- DOI and bibtex: see https://docs.abinit.org/theory/bibliography/#romero2020
-
- [5] Recent developments in the ABINIT software package.
- Computer Phys. Comm. 205, 106 (2016).
- X.Gonze, F.Jollet, F.Abreu Araujo, D.Adams, B.Amadon, T.Applencourt,
- C.Audouze, J.-M.Beuken, J.Bieder, A.Bokhanchuk, E.Bousquet, F.Bruneval
- D.Caliste, M.Cote, F.Dahm, F.Da Pieve, M.Delaveau, M.Di Gennaro,
- B.Dorado, C.Espejo, G.Geneste, L.Genovese, A.Gerossier, M.Giantomassi,
- Y.Gillet, D.R.Hamann, L.He, G.Jomard, J.Laflamme Janssen, S.Le Roux,
- A.Levitt, A.Lherbier, F.Liu, I.Lukacevic, A.Martin, C.Martins,
- M.J.T.Oliveira, S.Ponce, Y.Pouillon, T.Rangel, G.-M.Rignanese,
- A.H.Romero, B.Rousseau, O.Rubel, A.A.Shukri, M.Stankovski, M.Torrent,
- M.J.Van Setten, B.Van Troeye, M.J.Verstraete, D.Waroquier, J.Wiktor,
- B.Xu, A.Zhou, J.W.Zwanziger.
- Comment: the fourth generic paper describing the ABINIT project.
- Note that a version of this paper, that is not formatted for Computer Phys. Comm. 
- is available at https://www.abinit.org/sites/default/files/ABINIT16.pdf .
- The licence allows the authors to put it on the Web.
- DOI and bibtex: see https://docs.abinit.org/theory/bibliography/#gonze2016
-
- Proc.   0 individual time (sec): cpu=        192.7  wall=        193.5
 
================================================================================
 
 Calculation completed.
.Delivered   0 WARNINGs and   0 COMMENTs to log file.
+Overall time at end (sec) : cpu=     185644.4  wall=     185680.2
