
.Version 9.4.2 of ABINIT 
.(MPI version, prepared for a x86_64_linux_intel19.0 computer) 

.Copyright (C) 1998-2021 ABINIT group . 
 ABINIT comes with ABSOLUTELY NO WARRANTY.
 It is free software, and you are welcome to redistribute it
 under certain conditions (GNU General Public License,
 see ~abinit/COPYING or http://www.gnu.org/copyleft/gpl.txt).

 ABINIT is a project of the Universite Catholique de Louvain,
 Corning Inc. and other collaborators, see ~abinit/doc/developers/contributors.txt .
 Please read https://docs.abinit.org/theory/acknowledgments for suggested
 acknowledgments of the ABINIT effort.
 For more information, see https://www.abinit.org .

.Starting date : Wed  2 Feb 2022.
- ( at 06h38 )
  
- input  file    -> gw.abi
- output file    -> gw.abo
- root for input  files -> gwi
- root for output files -> gwo
 
 
 DATASET    4 : space group P6_3 m c (#186); Bravais hP (primitive hexag.)
================================================================================
 Values of the parameters that define the memory need for DATASET  4.
     intxc =       0    ionmov =       0      iscf =       7    lmnmax =       6
     lnmax =       6     mgfft =      60  mpssoang =       3    mqgrid =    3001
     natom =       4  nloc_mem =       1    nspden =       1   nspinor =       1
    nsppol =       1      nsym =      12    n1xccc =    2501    ntypat =       2
    occopt =       1   xclevel =       2
-    mband =         500        mffmem =           1         mkmem =           1
       mpw =        3909          nfft =       77760          nkpt =          30
================================================================================
P This job should need less than                      62.675 Mbytes of memory.
  Rough estimation (10% accuracy) of disk space for files :
_ WF disk file :    894.701 Mbytes ; DEN or POT disk file :      0.595 Mbytes.
================================================================================
 
--------------------------------------------------------------------------------
------------- Echo of variables that govern the present computation ------------
--------------------------------------------------------------------------------
-
- outvars: echo of selected default values                                      
-   iomode0 =  0 , fftalg0 =512 , wfoptalg0 =  0
-
- outvars: echo of global parameters not present in the input file              
-  max_nthreads =    0
-
 -outvars: echo values of preprocessed input variables --------
            acell      6.1404760962E+00  6.1404760962E+00  9.8337568503E+00 Bohr
              amu      6.53900000E+01  1.59994000E+01
             bdgw          26      27
           diemac      1.20000000E+01
             ecut      4.00000000E+01 Hartree
          ecuteps      4.00000000E+00 Hartree
         ecutsigx      4.00000000E+01 Hartree
          ecutwfn      4.00000000E+01 Hartree
-          fftalg         512
           getscr           3
           getwfk           2
           istwfk        1    0    0    0    1    0    0    0    0    0
                         0    0    0    0    0    0    0    0    0    0
                         0    0    0    0    0    0    0    0    0    0
              ixc     -116133
           jdtset        4
              kpt      0.00000000E+00  0.00000000E+00  0.00000000E+00
                       1.25000000E-01  0.00000000E+00  0.00000000E+00
                       2.50000000E-01  0.00000000E+00  0.00000000E+00
                       3.75000000E-01  0.00000000E+00  0.00000000E+00
                       5.00000000E-01  0.00000000E+00  0.00000000E+00
                       1.25000000E-01  1.25000000E-01  0.00000000E+00
                       2.50000000E-01  1.25000000E-01  0.00000000E+00
                       3.75000000E-01  1.25000000E-01  0.00000000E+00
                       2.50000000E-01  2.50000000E-01  0.00000000E+00
                       3.75000000E-01  2.50000000E-01  0.00000000E+00
                       0.00000000E+00  0.00000000E+00  2.00000000E-01
                       1.25000000E-01  0.00000000E+00  2.00000000E-01
                       2.50000000E-01  0.00000000E+00  2.00000000E-01
                       3.75000000E-01  0.00000000E+00  2.00000000E-01
                       5.00000000E-01  0.00000000E+00  2.00000000E-01
                       1.25000000E-01  1.25000000E-01  2.00000000E-01
                       2.50000000E-01  1.25000000E-01  2.00000000E-01
                       3.75000000E-01  1.25000000E-01  2.00000000E-01
                       2.50000000E-01  2.50000000E-01  2.00000000E-01
                       3.75000000E-01  2.50000000E-01  2.00000000E-01
                       0.00000000E+00  0.00000000E+00  4.00000000E-01
                       1.25000000E-01  0.00000000E+00  4.00000000E-01
                       2.50000000E-01  0.00000000E+00  4.00000000E-01
                       3.75000000E-01  0.00000000E+00  4.00000000E-01
                       5.00000000E-01  0.00000000E+00  4.00000000E-01
                       1.25000000E-01  1.25000000E-01  4.00000000E-01
                       2.50000000E-01  1.25000000E-01  4.00000000E-01
                       3.75000000E-01  1.25000000E-01  4.00000000E-01
                       2.50000000E-01  2.50000000E-01  4.00000000E-01
                       3.75000000E-01  2.50000000E-01  4.00000000E-01
         kptrlatt        8    0    0      0    8    0      0    0    5
          kptrlen      4.91238088E+01
P           mkmem           1
            natom           4
            nband         500
           ndtset           1
            ngfft          36      36      60
             nkpt          30
           nkptgw           1
           npweps         135
          npwsigx        3909
           npwwfn        3909
            nstep         200
             nsym          12
           ntypat           2
              occ      2.000000  2.000000  2.000000  2.000000  2.000000  2.000000
                       2.000000  2.000000  2.000000  2.000000  2.000000  2.000000
                       2.000000  2.000000  2.000000  2.000000  2.000000  2.000000
                       2.000000  2.000000  2.000000  2.000000  2.000000  2.000000
                       2.000000  2.000000  0.000000  0.000000  0.000000  0.000000
                       0.000000  0.000000  0.000000  0.000000  0.000000  0.000000
                       0.000000  0.000000  0.000000  0.000000  0.000000  0.000000
                       0.000000  0.000000  0.000000  0.000000  0.000000  0.000000
                       0.000000  0.000000  0.000000  0.000000  0.000000  0.000000
                       0.000000  0.000000  0.000000  0.000000  0.000000  0.000000
                       0.000000  0.000000  0.000000  0.000000  0.000000  0.000000
                       0.000000  0.000000  0.000000  0.000000  0.000000  0.000000
                       0.000000  0.000000  0.000000  0.000000  0.000000  0.000000
                       0.000000  0.000000  0.000000  0.000000  0.000000  0.000000
                       0.000000  0.000000  0.000000  0.000000  0.000000  0.000000
                       0.000000  0.000000  0.000000  0.000000  0.000000  0.000000
                       0.000000  0.000000  0.000000  0.000000  0.000000  0.000000
                       0.000000  0.000000  0.000000  0.000000  0.000000  0.000000
                       0.000000  0.000000  0.000000  0.000000  0.000000  0.000000
                       0.000000  0.000000  0.000000  0.000000  0.000000  0.000000
                       0.000000  0.000000  0.000000  0.000000  0.000000  0.000000
                       0.000000  0.000000  0.000000  0.000000  0.000000  0.000000
                       0.000000  0.000000  0.000000  0.000000  0.000000  0.000000
                       0.000000  0.000000  0.000000  0.000000  0.000000  0.000000
                       0.000000  0.000000  0.000000  0.000000  0.000000  0.000000
                       0.000000  0.000000  0.000000  0.000000  0.000000  0.000000
                       0.000000  0.000000  0.000000  0.000000  0.000000  0.000000
                       0.000000  0.000000  0.000000  0.000000  0.000000  0.000000
                       0.000000  0.000000  0.000000  0.000000  0.000000  0.000000
                       0.000000  0.000000  0.000000  0.000000  0.000000  0.000000
                       0.000000  0.000000  0.000000  0.000000  0.000000  0.000000
                       0.000000  0.000000  0.000000  0.000000  0.000000  0.000000
                       0.000000  0.000000  0.000000  0.000000  0.000000  0.000000
                       0.000000  0.000000  0.000000  0.000000  0.000000  0.000000
                       0.000000  0.000000  0.000000  0.000000  0.000000  0.000000
                       0.000000  0.000000  0.000000  0.000000  0.000000  0.000000
                       0.000000  0.000000  0.000000  0.000000  0.000000  0.000000
                       0.000000  0.000000  0.000000  0.000000  0.000000  0.000000
                       0.000000  0.000000  0.000000  0.000000  0.000000  0.000000
                       0.000000  0.000000  0.000000  0.000000  0.000000  0.000000
                       0.000000  0.000000  0.000000  0.000000  0.000000  0.000000
                       0.000000  0.000000  0.000000  0.000000  0.000000  0.000000
                       0.000000  0.000000  0.000000  0.000000  0.000000  0.000000
                       0.000000  0.000000  0.000000  0.000000  0.000000  0.000000
                       0.000000  0.000000  0.000000  0.000000  0.000000  0.000000
                       0.000000  0.000000  0.000000  0.000000  0.000000  0.000000
                       0.000000  0.000000  0.000000  0.000000  0.000000  0.000000
                       0.000000  0.000000  0.000000  0.000000  0.000000  0.000000
                       0.000000  0.000000  0.000000  0.000000  0.000000  0.000000
                       0.000000  0.000000  0.000000  0.000000  0.000000  0.000000
                       0.000000  0.000000  0.000000  0.000000  0.000000  0.000000
                       0.000000  0.000000  0.000000  0.000000  0.000000  0.000000
                       0.000000  0.000000  0.000000  0.000000  0.000000  0.000000
                       0.000000  0.000000  0.000000  0.000000  0.000000  0.000000
                       0.000000  0.000000  0.000000  0.000000  0.000000  0.000000
                       0.000000  0.000000  0.000000  0.000000  0.000000  0.000000
                       0.000000  0.000000  0.000000  0.000000  0.000000  0.000000
                       0.000000  0.000000  0.000000  0.000000  0.000000  0.000000
                       0.000000  0.000000  0.000000  0.000000  0.000000  0.000000
                       0.000000  0.000000  0.000000  0.000000  0.000000  0.000000
                       0.000000  0.000000  0.000000  0.000000  0.000000  0.000000
                       0.000000  0.000000  0.000000  0.000000  0.000000  0.000000
                       0.000000  0.000000  0.000000  0.000000  0.000000  0.000000
                       0.000000  0.000000  0.000000  0.000000  0.000000  0.000000
                       0.000000  0.000000  0.000000  0.000000  0.000000  0.000000
                       0.000000  0.000000  0.000000  0.000000  0.000000  0.000000
                       0.000000  0.000000  0.000000  0.000000  0.000000  0.000000
                       0.000000  0.000000  0.000000  0.000000  0.000000  0.000000
                       0.000000  0.000000  0.000000  0.000000  0.000000  0.000000
                       0.000000  0.000000  0.000000  0.000000  0.000000  0.000000
                       0.000000  0.000000  0.000000  0.000000  0.000000  0.000000
                       0.000000  0.000000  0.000000  0.000000  0.000000  0.000000
                       0.000000  0.000000  0.000000  0.000000  0.000000  0.000000
                       0.000000  0.000000  0.000000  0.000000  0.000000  0.000000
                       0.000000  0.000000  0.000000  0.000000  0.000000  0.000000
                       0.000000  0.000000  0.000000  0.000000  0.000000  0.000000
                       0.000000  0.000000  0.000000  0.000000  0.000000  0.000000
                       0.000000  0.000000  0.000000  0.000000  0.000000  0.000000
                       0.000000  0.000000  0.000000  0.000000  0.000000  0.000000
                       0.000000  0.000000  0.000000  0.000000  0.000000  0.000000
                       0.000000  0.000000  0.000000  0.000000  0.000000  0.000000
                       0.000000  0.000000  0.000000  0.000000  0.000000  0.000000
                       0.000000  0.000000  0.000000  0.000000  0.000000  0.000000
                       0.000000  0.000000
        optdriver           4
            rprim      1.0000000000E+00  0.0000000000E+00  0.0000000000E+00
                      -5.0000000000E-01  8.6602540378E-01  0.0000000000E+00
                       6.1232339957E-17  1.0605752387E-16  1.0000000000E+00
          spgroup         186
           symrel      1  0  0   0  1  0   0  0  1       0  1  0   1  0  0   0  0  1
                       1  1  0  -1  0  0   0  0  1      -1  0  0   1  1  0   0  0  1
                       0  1  0  -1 -1  0   0  0  1      -1 -1  0   0  1  0   0  0  1
                      -1  0  0   0 -1  0   0  0  1       0 -1  0  -1  0  0   0  0  1
                      -1 -1  0   1  0  0   0  0  1       1  0  0  -1 -1  0   0  0  1
                       0 -1  0   1  1  0   0  0  1       1  1  0   0 -1  0   0  0  1
            tnons      0.0000000  0.0000000  0.0000000     0.0000000 -0.0000000  0.5000000
                      -0.0000000 -0.0000000  0.5000000     0.0000000  0.0000000  0.0000000
                      -0.0000000 -0.0000000  0.0000000     0.0000000  0.0000000  0.5000000
                       0.0000000 -0.0000000  0.5000000    -0.0000000 -0.0000000  0.0000000
                       0.0000000 -0.0000000  0.0000000    -0.0000000 -0.0000000  0.5000000
                       0.0000000  0.0000000  0.5000000     0.0000000 -0.0000000  0.0000000
            typat      1  1  2  2
              wtk        0.00313    0.01875    0.01875    0.01875    0.00938    0.01875
                         0.03750    0.03750    0.01875    0.01875    0.00625    0.03750
                         0.03750    0.03750    0.01875    0.03750    0.07500    0.07500
                         0.03750    0.03750    0.00625    0.03750    0.03750    0.03750
                         0.01875    0.03750    0.07500    0.07500    0.03750    0.03750
           xangst      7.0500566530E-16  1.8760419647E+00  0.0000000000E+00
                       1.6247000000E+00  9.3802098235E-01  2.6019000000E+00
                       9.4000755373E-16  1.8760419647E+00  1.9883719800E+00
                       1.6247000000E+00  9.3802098235E-01  4.5902719800E+00
            xcart      1.3322676296E-15  3.5452055271E+00  0.0000000000E+00
                       3.0702380481E+00  1.7726027635E+00  4.9168784252E+00
                       1.7763568394E-15  3.5452055271E+00  3.7574784925E+00
                       3.0702380481E+00  1.7726027635E+00  8.6743569177E+00
             xred      3.3333333333E-01  6.6666666667E-01  0.0000000000E+00
                       6.6666666667E-01  3.3333333333E-01  5.0000000000E-01
                       3.3333333333E-01  6.6666666667E-01  3.8210000000E-01
                       6.6666666667E-01  3.3333333333E-01  8.8210000000E-01
            znucl       30.00000    8.00000
 
================================================================================
 
 chkinp: Checking input parameters for consistency, jdtset=   4.
 
================================================================================
== DATASET  4 ==================================================================
-   mpi_nproc: 480, omp_nthreads: -1 (-1 if OMP is not activated)
 

--- !DatasetInfo
iteration_state: {dtset: 4, }
dimensions: {natom: 4, nkpt: 30, mband: 500, nsppol: 1, nspinor: 1, nspden: 1, mpw: 3909, }
cutoff_energies: {ecut:  40.0, pawecutdg:  -1.0, }
electrons: {nelect:   5.20000000E+01, charge:   0.00000000E+00, occopt:   1.00000000E+00, tsmear:   1.00000000E-02, }
meta: {optdriver: 4, gwcalctyp: 0, }
...

 mkfilename : getwfk/=0, take file _WFK from output of DATASET   2.
 
 mkfilename : getscr/=0, take file _SCR from output of DATASET   3.
 
 SIGMA: Calculation of the GW corrections 
 
 Based on a program developped by R.W. Godby, V. Olevano, G. Onida, and L. Reining.
 Incorporated in ABINIT by V. Olevano, G.-M. Rignanese, and M. Torrent.
.Using single precision arithmetic ; gwpc =  4
 
 Real(R)+Recip(G) space primitive vectors, cartesian coordinates (Bohr,Bohr^-1):
 R(1)=  6.1404761  0.0000000  0.0000000  G(1)=  0.1628538  0.0940237  0.0000000
 R(2)= -3.0702380  5.3178083  0.0000000  G(2)=  0.0000000  0.1880474  0.0000000
 R(3)=  0.0000000  0.0000000  9.8337569  G(3)=  0.0000000  0.0000000  0.1016905
 Unit cell volume ucvol=  3.2111026E+02 bohr^3
 Angles (23,13,12)=  9.00000000E+01  9.00000000E+01  1.20000000E+02 degrees
 
--- Pseudopotential description ------------------------------------------------
- pspini: atom type   1  psp file is ./Zn.psp8
- pspatm: opening atomic psp file    ./Zn.psp8
- Zn    ONCVPSP-3.3.0  r_core=   1.35823   1.66358   1.85211
- 30.00000  20.00000    180112                znucl, zion, pspdat
    8 -116133    2    4       600   0.00000   pspcod,pspxc,lmax,lloc,mmax,r2well
    5.99000000000000    2.50000000000000    0.00000000000000   rchrg,fchrg,qchrg
     nproj     2     2     2
     extension_switch     1
  pspatm : epsatm=   26.57343589
         --- l  ekb(1:nproj) -->
             0    2.830835   -1.519107
             1   -4.626739   -1.324150
             2   -6.948510   -2.555500
 pspatm: atomic psp has been read  and splines computed
 
- pspini: atom type   2  psp file is ./O.psp8
- pspatm: opening atomic psp file    ./O.psp8
- O     ONCVPSP-3.3.0  r_core=   1.35509   1.45563   1.26150
-  8.00000   6.00000    180112                znucl, zion, pspdat
    8 -116133    2    4       600   0.00000   pspcod,pspxc,lmax,lloc,mmax,r2well
    5.99000000000000    4.00000000000000    0.00000000000000   rchrg,fchrg,qchrg
     nproj     2     2     1
     extension_switch     1
  pspatm : epsatm=    6.22910522
         --- l  ekb(1:nproj) -->
             0    6.050032    0.820363
             1   -4.739617   -1.153841
             2   -1.335834
 pspatm: atomic psp has been read  and splines computed
 
   3.41146427E+03                                ecore*ucvol(ha*bohr**3)
--------------------------------------------------------------------------------
 
 ==== K-mesh for the wavefunctions ====
 Number of points in the irreducible wedge :    30
 Reduced coordinates and weights : 
 
     1)     0.00000000E+00  0.00000000E+00  0.00000000E+00       0.00313
     2)     1.25000000E-01  0.00000000E+00  0.00000000E+00       0.01875
     3)     2.50000000E-01  0.00000000E+00  0.00000000E+00       0.01875
     4)     3.75000000E-01  0.00000000E+00  0.00000000E+00       0.01875
     5)     5.00000000E-01  0.00000000E+00  0.00000000E+00       0.00938
     6)     1.25000000E-01  1.25000000E-01  0.00000000E+00       0.01875
     7)     2.50000000E-01  1.25000000E-01  0.00000000E+00       0.03750
     8)     3.75000000E-01  1.25000000E-01  0.00000000E+00       0.03750
     9)     2.50000000E-01  2.50000000E-01  0.00000000E+00       0.01875
    10)     3.75000000E-01  2.50000000E-01  0.00000000E+00       0.01875
    11)     0.00000000E+00  0.00000000E+00  2.00000000E-01       0.00625
    12)     1.25000000E-01  0.00000000E+00  2.00000000E-01       0.03750
    13)     2.50000000E-01  0.00000000E+00  2.00000000E-01       0.03750
    14)     3.75000000E-01  0.00000000E+00  2.00000000E-01       0.03750
    15)     5.00000000E-01  0.00000000E+00  2.00000000E-01       0.01875
    16)     1.25000000E-01  1.25000000E-01  2.00000000E-01       0.03750
    17)     2.50000000E-01  1.25000000E-01  2.00000000E-01       0.07500
    18)     3.75000000E-01  1.25000000E-01  2.00000000E-01       0.07500
    19)     2.50000000E-01  2.50000000E-01  2.00000000E-01       0.03750
    20)     3.75000000E-01  2.50000000E-01  2.00000000E-01       0.03750
    21)     0.00000000E+00  0.00000000E+00  4.00000000E-01       0.00625
    22)     1.25000000E-01  0.00000000E+00  4.00000000E-01       0.03750
    23)     2.50000000E-01  0.00000000E+00  4.00000000E-01       0.03750
    24)     3.75000000E-01  0.00000000E+00  4.00000000E-01       0.03750
    25)     5.00000000E-01  0.00000000E+00  4.00000000E-01       0.01875
    26)     1.25000000E-01  1.25000000E-01  4.00000000E-01       0.03750
    27)     2.50000000E-01  1.25000000E-01  4.00000000E-01       0.07500
    28)     3.75000000E-01  1.25000000E-01  4.00000000E-01       0.07500
    29)     2.50000000E-01  2.50000000E-01  4.00000000E-01       0.03750
    30)     3.75000000E-01  2.50000000E-01  4.00000000E-01       0.03750
 
 Together with 12 symmetry operations and time-reversal symmetry 
 yields   320 points in the full Brillouin Zone.
 
 
 ==== Q-mesh for screening function ====
 Number of points in the irreducible wedge :    30
 Reduced coordinates and weights : 
 
     1)     0.00000000E+00  0.00000000E+00  0.00000000E+00       0.00313
     2)     1.25000000E-01  0.00000000E+00  0.00000000E+00       0.01875
     3)     2.50000000E-01  0.00000000E+00  0.00000000E+00       0.01875
     4)     3.75000000E-01  0.00000000E+00  0.00000000E+00       0.01875
     5)     5.00000000E-01  0.00000000E+00  0.00000000E+00       0.00938
     6)     1.25000000E-01  1.25000000E-01  0.00000000E+00       0.01875
     7)     2.50000000E-01  1.25000000E-01  0.00000000E+00       0.03750
     8)     3.75000000E-01  1.25000000E-01  0.00000000E+00       0.03750
     9)     2.50000000E-01  2.50000000E-01  0.00000000E+00       0.01875
    10)     3.75000000E-01  2.50000000E-01  0.00000000E+00       0.01875
    11)     0.00000000E+00  0.00000000E+00  2.00000000E-01       0.00625
    12)     1.25000000E-01  0.00000000E+00  2.00000000E-01       0.03750
    13)     2.50000000E-01  0.00000000E+00  2.00000000E-01       0.03750
    14)     3.75000000E-01  0.00000000E+00  2.00000000E-01       0.03750
    15)     5.00000000E-01  0.00000000E+00  2.00000000E-01       0.01875
    16)     1.25000000E-01  1.25000000E-01  2.00000000E-01       0.03750
    17)     2.50000000E-01  1.25000000E-01  2.00000000E-01       0.07500
    18)     3.75000000E-01  1.25000000E-01  2.00000000E-01       0.07500
    19)     2.50000000E-01  2.50000000E-01  2.00000000E-01       0.03750
    20)     3.75000000E-01  2.50000000E-01  2.00000000E-01       0.03750
    21)     0.00000000E+00  0.00000000E+00  4.00000000E-01       0.00625
    22)     1.25000000E-01  0.00000000E+00  4.00000000E-01       0.03750
    23)     2.50000000E-01  0.00000000E+00  4.00000000E-01       0.03750
    24)     3.75000000E-01  0.00000000E+00  4.00000000E-01       0.03750
    25)     5.00000000E-01  0.00000000E+00  4.00000000E-01       0.01875
    26)     1.25000000E-01  1.25000000E-01  4.00000000E-01       0.03750
    27)     2.50000000E-01  1.25000000E-01  4.00000000E-01       0.07500
    28)     3.75000000E-01  1.25000000E-01  4.00000000E-01       0.07500
    29)     2.50000000E-01  2.50000000E-01  4.00000000E-01       0.03750
    30)     3.75000000E-01  2.50000000E-01  4.00000000E-01       0.03750
 
 Together with 12 symmetry operations and time-reversal symmetry 
 yields   320 points in the full Brillouin Zone.
 
 
 setmesh: FFT mesh size selected  =    32x   32x   60
          total number of points  =        61440
 
 Number of electrons calculated from density =   52.0000; Expected =   52.0000
 average of density, n =  0.161938
 r_s =    1.1381
 omega_plasma =   38.8177 [eV]
 
 
 === KS Band Gaps ===
  >>>> For spin  1
   Minimum direct gap =   0.7629 [eV], located at k-point      :   0.0000  0.0000  0.0000
   Fundamental gap    =   0.7629 [eV], Top of valence bands at :   0.0000  0.0000  0.0000
                                       Bottom of conduction at :   0.0000  0.0000  0.0000
 SIGMA fundamental parameters:
 PLASMON POLE MODEL  1
 number of plane-waves for SigmaX                 3909
 number of plane-waves for SigmaC and W            135
 number of plane-waves for wavefunctions          3909
 number of bands                                   500
 number of independent spin polarizations            1
 number of spinorial components                      1
 number of k-points in IBZ                          30
 number of q-points in IBZ                          30
 number of symmetry operations                      12
 number of k-points in BZ                          320
 number of q-points in BZ                          320
 number of frequencies for dSigma/dE                 9
 frequency step for dSigma/dE [eV]                0.25
 number of omega for Sigma on real axis              0
 max omega for Sigma on real axis  [eV]           0.00
 zcut for avoiding poles [eV]                     0.10
 
 EPSILON^-1 parameters (SCR file):
 dimension of the eps^-1 matrix on file            135
 dimension of the eps^-1 matrix used               135
 number of plane-waves for wavefunctions          3909
 number of bands                                   500
 number of q-points in IBZ                          30
 number of frequencies                               2
 number of real frequencies                          1
 number of imag frequencies                          1
 
 matrix elements of self-energy operator (all in [eV])
 
 Perturbative Calculation

--- !SelfEnergy_ee
iteration_state: {dtset: 4, }
kpoint     : [   0.000,    0.000,    0.000, ]
spin       : 1
KS_gap     :    0.763
QP_gap     :    1.931
Delta_QP_KS:    1.168
data: !SigmaeeData |
     Band     E0 <VxcDFT>   SigX SigC(E0)      Z dSigC/dE  Sig(E)    E-E0       E
       25   3.985 -24.953 -30.797   4.635   0.797  -0.255 -25.915  -0.963   3.022
       26   3.985 -24.953 -30.797   4.635   0.797  -0.255 -25.915  -0.963   3.022
       27   4.748 -12.863  -9.282  -3.337   0.842  -0.187 -12.657   0.206   4.953
...

 
== END DATASET(S) ==============================================================
================================================================================
  
 -outvars: echo values of variables after computation  --------
            acell      6.1404760962E+00  6.1404760962E+00  9.8337568503E+00 Bohr
              amu      6.53900000E+01  1.59994000E+01
             bdgw          26      27
           diemac      1.20000000E+01
             ecut      4.00000000E+01 Hartree
          ecuteps      4.00000000E+00 Hartree
         ecutsigx      4.00000000E+01 Hartree
          ecutwfn      4.00000000E+01 Hartree
           etotal4     0.0000000000E+00
            fcart4     0.0000000000E+00  0.0000000000E+00  0.0000000000E+00
                       0.0000000000E+00  0.0000000000E+00  0.0000000000E+00
                       0.0000000000E+00  0.0000000000E+00  0.0000000000E+00
                       0.0000000000E+00  0.0000000000E+00  0.0000000000E+00
-          fftalg         512
           getscr           3
           getwfk           2
           istwfk        1    0    0    0    1    0    0    0    0    0
                         0    0    0    0    0    0    0    0    0    0
                         0    0    0    0    0    0    0    0    0    0
              ixc     -116133
           jdtset        4
              kpt      0.00000000E+00  0.00000000E+00  0.00000000E+00
                       1.25000000E-01  0.00000000E+00  0.00000000E+00
                       2.50000000E-01  0.00000000E+00  0.00000000E+00
                       3.75000000E-01  0.00000000E+00  0.00000000E+00
                       5.00000000E-01  0.00000000E+00  0.00000000E+00
                       1.25000000E-01  1.25000000E-01  0.00000000E+00
                       2.50000000E-01  1.25000000E-01  0.00000000E+00
                       3.75000000E-01  1.25000000E-01  0.00000000E+00
                       2.50000000E-01  2.50000000E-01  0.00000000E+00
                       3.75000000E-01  2.50000000E-01  0.00000000E+00
                       0.00000000E+00  0.00000000E+00  2.00000000E-01
                       1.25000000E-01  0.00000000E+00  2.00000000E-01
                       2.50000000E-01  0.00000000E+00  2.00000000E-01
                       3.75000000E-01  0.00000000E+00  2.00000000E-01
                       5.00000000E-01  0.00000000E+00  2.00000000E-01
                       1.25000000E-01  1.25000000E-01  2.00000000E-01
                       2.50000000E-01  1.25000000E-01  2.00000000E-01
                       3.75000000E-01  1.25000000E-01  2.00000000E-01
                       2.50000000E-01  2.50000000E-01  2.00000000E-01
                       3.75000000E-01  2.50000000E-01  2.00000000E-01
                       0.00000000E+00  0.00000000E+00  4.00000000E-01
                       1.25000000E-01  0.00000000E+00  4.00000000E-01
                       2.50000000E-01  0.00000000E+00  4.00000000E-01
                       3.75000000E-01  0.00000000E+00  4.00000000E-01
                       5.00000000E-01  0.00000000E+00  4.00000000E-01
                       1.25000000E-01  1.25000000E-01  4.00000000E-01
                       2.50000000E-01  1.25000000E-01  4.00000000E-01
                       3.75000000E-01  1.25000000E-01  4.00000000E-01
                       2.50000000E-01  2.50000000E-01  4.00000000E-01
                       3.75000000E-01  2.50000000E-01  4.00000000E-01
         kptrlatt        8    0    0      0    8    0      0    0    5
          kptrlen      4.91238088E+01
P           mkmem           1
            natom           4
            nband         500
           ndtset           1
            ngfft          36      36      60
             nkpt          30
           nkptgw           1
           npweps         135
          npwsigx        3909
           npwwfn        3909
            nstep         200
             nsym          12
           ntypat           2
              occ      2.000000  2.000000  2.000000  2.000000  2.000000  2.000000
                       2.000000  2.000000  2.000000  2.000000  2.000000  2.000000
                       2.000000  2.000000  2.000000  2.000000  2.000000  2.000000
                       2.000000  2.000000  2.000000  2.000000  2.000000  2.000000
                       2.000000  2.000000  0.000000  0.000000  0.000000  0.000000
                       0.000000  0.000000  0.000000  0.000000  0.000000  0.000000
                       0.000000  0.000000  0.000000  0.000000  0.000000  0.000000
                       0.000000  0.000000  0.000000  0.000000  0.000000  0.000000
                       0.000000  0.000000  0.000000  0.000000  0.000000  0.000000
                       0.000000  0.000000  0.000000  0.000000  0.000000  0.000000
                       0.000000  0.000000  0.000000  0.000000  0.000000  0.000000
                       0.000000  0.000000  0.000000  0.000000  0.000000  0.000000
                       0.000000  0.000000  0.000000  0.000000  0.000000  0.000000
                       0.000000  0.000000  0.000000  0.000000  0.000000  0.000000
                       0.000000  0.000000  0.000000  0.000000  0.000000  0.000000
                       0.000000  0.000000  0.000000  0.000000  0.000000  0.000000
                       0.000000  0.000000  0.000000  0.000000  0.000000  0.000000
                       0.000000  0.000000  0.000000  0.000000  0.000000  0.000000
                       0.000000  0.000000  0.000000  0.000000  0.000000  0.000000
                       0.000000  0.000000  0.000000  0.000000  0.000000  0.000000
                       0.000000  0.000000  0.000000  0.000000  0.000000  0.000000
                       0.000000  0.000000  0.000000  0.000000  0.000000  0.000000
                       0.000000  0.000000  0.000000  0.000000  0.000000  0.000000
                       0.000000  0.000000  0.000000  0.000000  0.000000  0.000000
                       0.000000  0.000000  0.000000  0.000000  0.000000  0.000000
                       0.000000  0.000000  0.000000  0.000000  0.000000  0.000000
                       0.000000  0.000000  0.000000  0.000000  0.000000  0.000000
                       0.000000  0.000000  0.000000  0.000000  0.000000  0.000000
                       0.000000  0.000000  0.000000  0.000000  0.000000  0.000000
                       0.000000  0.000000  0.000000  0.000000  0.000000  0.000000
                       0.000000  0.000000  0.000000  0.000000  0.000000  0.000000
                       0.000000  0.000000  0.000000  0.000000  0.000000  0.000000
                       0.000000  0.000000  0.000000  0.000000  0.000000  0.000000
                       0.000000  0.000000  0.000000  0.000000  0.000000  0.000000
                       0.000000  0.000000  0.000000  0.000000  0.000000  0.000000
                       0.000000  0.000000  0.000000  0.000000  0.000000  0.000000
                       0.000000  0.000000  0.000000  0.000000  0.000000  0.000000
                       0.000000  0.000000  0.000000  0.000000  0.000000  0.000000
                       0.000000  0.000000  0.000000  0.000000  0.000000  0.000000
                       0.000000  0.000000  0.000000  0.000000  0.000000  0.000000
                       0.000000  0.000000  0.000000  0.000000  0.000000  0.000000
                       0.000000  0.000000  0.000000  0.000000  0.000000  0.000000
                       0.000000  0.000000  0.000000  0.000000  0.000000  0.000000
                       0.000000  0.000000  0.000000  0.000000  0.000000  0.000000
                       0.000000  0.000000  0.000000  0.000000  0.000000  0.000000
                       0.000000  0.000000  0.000000  0.000000  0.000000  0.000000
                       0.000000  0.000000  0.000000  0.000000  0.000000  0.000000
                       0.000000  0.000000  0.000000  0.000000  0.000000  0.000000
                       0.000000  0.000000  0.000000  0.000000  0.000000  0.000000
                       0.000000  0.000000  0.000000  0.000000  0.000000  0.000000
                       0.000000  0.000000  0.000000  0.000000  0.000000  0.000000
                       0.000000  0.000000  0.000000  0.000000  0.000000  0.000000
                       0.000000  0.000000  0.000000  0.000000  0.000000  0.000000
                       0.000000  0.000000  0.000000  0.000000  0.000000  0.000000
                       0.000000  0.000000  0.000000  0.000000  0.000000  0.000000
                       0.000000  0.000000  0.000000  0.000000  0.000000  0.000000
                       0.000000  0.000000  0.000000  0.000000  0.000000  0.000000
                       0.000000  0.000000  0.000000  0.000000  0.000000  0.000000
                       0.000000  0.000000  0.000000  0.000000  0.000000  0.000000
                       0.000000  0.000000  0.000000  0.000000  0.000000  0.000000
                       0.000000  0.000000  0.000000  0.000000  0.000000  0.000000
                       0.000000  0.000000  0.000000  0.000000  0.000000  0.000000
                       0.000000  0.000000  0.000000  0.000000  0.000000  0.000000
                       0.000000  0.000000  0.000000  0.000000  0.000000  0.000000
                       0.000000  0.000000  0.000000  0.000000  0.000000  0.000000
                       0.000000  0.000000  0.000000  0.000000  0.000000  0.000000
                       0.000000  0.000000  0.000000  0.000000  0.000000  0.000000
                       0.000000  0.000000  0.000000  0.000000  0.000000  0.000000
                       0.000000  0.000000  0.000000  0.000000  0.000000  0.000000
                       0.000000  0.000000  0.000000  0.000000  0.000000  0.000000
                       0.000000  0.000000  0.000000  0.000000  0.000000  0.000000
                       0.000000  0.000000  0.000000  0.000000  0.000000  0.000000
                       0.000000  0.000000  0.000000  0.000000  0.000000  0.000000
                       0.000000  0.000000  0.000000  0.000000  0.000000  0.000000
                       0.000000  0.000000  0.000000  0.000000  0.000000  0.000000
                       0.000000  0.000000  0.000000  0.000000  0.000000  0.000000
                       0.000000  0.000000  0.000000  0.000000  0.000000  0.000000
                       0.000000  0.000000  0.000000  0.000000  0.000000  0.000000
                       0.000000  0.000000  0.000000  0.000000  0.000000  0.000000
                       0.000000  0.000000  0.000000  0.000000  0.000000  0.000000
                       0.000000  0.000000  0.000000  0.000000  0.000000  0.000000
                       0.000000  0.000000  0.000000  0.000000  0.000000  0.000000
                       0.000000  0.000000  0.000000  0.000000  0.000000  0.000000
                       0.000000  0.000000
        optdriver           4
            rprim      1.0000000000E+00  0.0000000000E+00  0.0000000000E+00
                      -5.0000000000E-01  8.6602540378E-01  0.0000000000E+00
                       6.1232339957E-17  1.0605752387E-16  1.0000000000E+00
          spgroup         186
           strten4     0.0000000000E+00  0.0000000000E+00  0.0000000000E+00
                       0.0000000000E+00  0.0000000000E+00  0.0000000000E+00
           symrel      1  0  0   0  1  0   0  0  1       0  1  0   1  0  0   0  0  1
                       1  1  0  -1  0  0   0  0  1      -1  0  0   1  1  0   0  0  1
                       0  1  0  -1 -1  0   0  0  1      -1 -1  0   0  1  0   0  0  1
                      -1  0  0   0 -1  0   0  0  1       0 -1  0  -1  0  0   0  0  1
                      -1 -1  0   1  0  0   0  0  1       1  0  0  -1 -1  0   0  0  1
                       0 -1  0   1  1  0   0  0  1       1  1  0   0 -1  0   0  0  1
            tnons      0.0000000  0.0000000  0.0000000     0.0000000 -0.0000000  0.5000000
                      -0.0000000 -0.0000000  0.5000000     0.0000000  0.0000000  0.0000000
                      -0.0000000 -0.0000000  0.0000000     0.0000000  0.0000000  0.5000000
                       0.0000000 -0.0000000  0.5000000    -0.0000000 -0.0000000  0.0000000
                       0.0000000 -0.0000000  0.0000000    -0.0000000 -0.0000000  0.5000000
                       0.0000000  0.0000000  0.5000000     0.0000000 -0.0000000  0.0000000
            typat      1  1  2  2
              wtk        0.00313    0.01875    0.01875    0.01875    0.00938    0.01875
                         0.03750    0.03750    0.01875    0.01875    0.00625    0.03750
                         0.03750    0.03750    0.01875    0.03750    0.07500    0.07500
                         0.03750    0.03750    0.00625    0.03750    0.03750    0.03750
                         0.01875    0.03750    0.07500    0.07500    0.03750    0.03750
           xangst      7.0500566530E-16  1.8760419647E+00  0.0000000000E+00
                       1.6247000000E+00  9.3802098235E-01  2.6019000000E+00
                       9.4000755373E-16  1.8760419647E+00  1.9883719800E+00
                       1.6247000000E+00  9.3802098235E-01  4.5902719800E+00
            xcart      1.3322676296E-15  3.5452055271E+00  0.0000000000E+00
                       3.0702380481E+00  1.7726027635E+00  4.9168784252E+00
                       1.7763568394E-15  3.5452055271E+00  3.7574784925E+00
                       3.0702380481E+00  1.7726027635E+00  8.6743569177E+00
             xred      3.3333333333E-01  6.6666666667E-01  0.0000000000E+00
                       6.6666666667E-01  3.3333333333E-01  5.0000000000E-01
                       3.3333333333E-01  6.6666666667E-01  3.8210000000E-01
                       6.6666666667E-01  3.3333333333E-01  8.8210000000E-01
            znucl       30.00000    8.00000
 
================================================================================


- Timing analysis has been suppressed with timopt=0



================================================================================

 Suggested references for the acknowledgment of ABINIT usage.

 The users of ABINIT have little formal obligations with respect to the ABINIT group
 (those specified in the GNU General Public License, http://www.gnu.org/copyleft/gpl.txt).
 However, it is common practice in the scientific literature,
 to acknowledge the efforts of people that have made the research possible.
 In this spirit, please find below suggested citations of work written by ABINIT developers,
 corresponding to implementations inside of ABINIT that you have used in the present run.
 Note also that it will be of great value to readers of publications presenting these results,
 to read papers enabling them to understand the theoretical formalism and details
 of the ABINIT implementation.
 For information on why they are suggested, see also https://docs.abinit.org/theory/acknowledgments.
-
- [1] Libxc: A library of exchange and correlation functionals for density functional theory.
- M.A.L. Marques, M.J.T. Oliveira, T. Burnus, Computer Physics Communications 183, 2227 (2012).
- Comment: to be cited when LibXC is used (negative value of ixc)
- Strong suggestion to cite this paper.
- DOI and bibtex: see https://docs.abinit.org/theory/bibliography/#marques2012
-
- [2] The Abinit project: Impact, environment and recent developments.
- Computer Phys. Comm. 248, 107042 (2020).
- X.Gonze, B. Amadon, G. Antonius, F.Arnardi, L.Baguet, J.-M.Beuken,
- J.Bieder, F.Bottin, J.Bouchet, E.Bousquet, N.Brouwer, F.Bruneval,
- G.Brunin, T.Cavignac, J.-B. Charraud, Wei Chen, M.Cote, S.Cottenier,
- J.Denier, G.Geneste, Ph.Ghosez, M.Giantomassi, Y.Gillet, O.Gingras,
- D.R.Hamann, G.Hautier, Xu He, N.Helbig, N.Holzwarth, Y.Jia, F.Jollet,
- W.Lafargue-Dit-Hauret, K.Lejaeghere, M.A.L.Marques, A.Martin, C.Martins,
- H.P.C. Miranda, F.Naccarato, K. Persson, G.Petretto, V.Planes, Y.Pouillon,
- S.Prokhorenko, F.Ricci, G.-M.Rignanese, A.H.Romero, M.M.Schmitt, M.Torrent,
- M.J.van Setten, B.Van Troeye, M.J.Verstraete, G.Zerah and J.W.Zwanzig
- Comment: the fifth generic paper describing the ABINIT project.
- Note that a version of this paper, that is not formatted for Computer Phys. Comm. 
- is available at https://www.abinit.org/sites/default/files/ABINIT20.pdf .
- The licence allows the authors to put it on the Web.
- DOI and bibtex: see https://docs.abinit.org/theory/bibliography/#gonze2020
-
- [3] Optimized norm-conserving Vanderbilt pseudopotentials.
- D.R. Hamann, Phys. Rev. B 88, 085117 (2013).
- Comment: Some pseudopotential generated using the ONCVPSP code were used.
- DOI and bibtex: see https://docs.abinit.org/theory/bibliography/#hamann2013
-
- [4] ABINIT: Overview, and focus on selected capabilities
- J. Chem. Phys. 152, 124102 (2020).
- A. Romero, D.C. Allan, B. Amadon, G. Antonius, T. Applencourt, L.Baguet,
- J.Bieder, F.Bottin, J.Bouchet, E.Bousquet, F.Bruneval,
- G.Brunin, D.Caliste, M.Cote,
- J.Denier, C. Dreyer, Ph.Ghosez, M.Giantomassi, Y.Gillet, O.Gingras,
- D.R.Hamann, G.Hautier, F.Jollet, G. Jomard,
- A.Martin, 
- H.P.C. Miranda, F.Naccarato, G.Petretto, N.A. Pike, V.Planes,
- S.Prokhorenko, T. Rangel, F.Ricci, G.-M.Rignanese, M.Royo, M.Stengel, M.Torrent,
- M.J.van Setten, B.Van Troeye, M.J.Verstraete, J.Wiktor, J.W.Zwanziger, and X.Gonze.
- Comment: a global overview of ABINIT, with focus on selected capabilities .
- Note that a version of this paper, that is not formatted for J. Chem. Phys 
- is available at https://www.abinit.org/sites/default/files/ABINIT20_JPC.pdf .
- The licence allows the authors to put it on the Web.
- DOI and bibtex: see https://docs.abinit.org/theory/bibliography/#romero2020
-
- [5] Recent developments in the ABINIT software package.
- Computer Phys. Comm. 205, 106 (2016).
- X.Gonze, F.Jollet, F.Abreu Araujo, D.Adams, B.Amadon, T.Applencourt,
- C.Audouze, J.-M.Beuken, J.Bieder, A.Bokhanchuk, E.Bousquet, F.Bruneval
- D.Caliste, M.Cote, F.Dahm, F.Da Pieve, M.Delaveau, M.Di Gennaro,
- B.Dorado, C.Espejo, G.Geneste, L.Genovese, A.Gerossier, M.Giantomassi,
- Y.Gillet, D.R.Hamann, L.He, G.Jomard, J.Laflamme Janssen, S.Le Roux,
- A.Levitt, A.Lherbier, F.Liu, I.Lukacevic, A.Martin, C.Martins,
- M.J.T.Oliveira, S.Ponce, Y.Pouillon, T.Rangel, G.-M.Rignanese,
- A.H.Romero, B.Rousseau, O.Rubel, A.A.Shukri, M.Stankovski, M.Torrent,
- M.J.Van Setten, B.Van Troeye, M.J.Verstraete, D.Waroquier, J.Wiktor,
- B.Xu, A.Zhou, J.W.Zwanziger.
- Comment: the fourth generic paper describing the ABINIT project.
- Note that a version of this paper, that is not formatted for Computer Phys. Comm. 
- is available at https://www.abinit.org/sites/default/files/ABINIT16.pdf .
- The licence allows the authors to put it on the Web.
- DOI and bibtex: see https://docs.abinit.org/theory/bibliography/#gonze2016
-
- Proc.   0 individual time (sec): cpu=          3.6  wall=          9.2
 
================================================================================
 
 Calculation completed.
.Delivered   0 WARNINGs and   0 COMMENTs to log file.
+Overall time at end (sec) : cpu=       4353.5  wall=       4400.2
