
.Version 9.7.2 of ABINIT 
.(MPI version, prepared for a x86_64_linux_intel2021.2 computer) 

.Copyright (C) 1998-2021 ABINIT group . 
 ABINIT comes with ABSOLUTELY NO WARRANTY.
 It is free software, and you are welcome to redistribute it
 under certain conditions (GNU General Public License,
 see ~abinit/COPYING or http://www.gnu.org/copyleft/gpl.txt).

 ABINIT is a project of the Universite Catholique de Louvain,
 Corning Inc. and other collaborators, see ~abinit/doc/developers/contributors.txt .
 Please read https://docs.abinit.org/theory/acknowledgments for suggested
 acknowledgments of the ABINIT effort.
 For more information, see https://www.abinit.org .

.Starting date : Fri 18 Feb 2022.
- ( at 01h23 )
  
- input  file    -> run.abi
- output file    -> run.abo
- root for input  files -> indata/
- root for output files -> outdata/
 
 
 DATASET    3 : space group Fm -3 m (#225); Bravais cF (face-center cubic)
================================================================================
 Values of the parameters that define the memory need for DATASET  3.
     intxc =       0    ionmov =       0      iscf =       7    lmnmax =       6
     lnmax =       6     mgfft =      45  mpssoang =       3    mqgrid =    3001
     natom =       3  nloc_mem =       1    nspden =       1   nspinor =       1
    nsppol =       1      nsym =      48    n1xccc =    2501    ntypat =       2
    occopt =       1   xclevel =       2
-    mband =        1024        mffmem =           1         mkmem =           1
       mpw =        3218          nfft =       91125          nkpt =          29
================================================================================
P This job should need less than                     109.645 Mbytes of memory.
  Rough estimation (10% accuracy) of disk space for files :
_ WF disk file :   1458.158 Mbytes ; DEN or POT disk file :      0.697 Mbytes.
================================================================================
 
--------------------------------------------------------------------------------
------------- Echo of variables that govern the present computation ------------
--------------------------------------------------------------------------------
-
- outvars: echo of selected default values                                      
-   iomode0 =  0 , fftalg0 =512 , wfoptalg0 =  0
-
- outvars: echo of global parameters not present in the input file              
-  max_nthreads =    0
-
 -outvars: echo values of preprocessed input variables --------
            acell      6.7767069783E+00  6.7767069783E+00  6.7767069783E+00 Bohr
              amu      9.12240000E+01  1.59994000E+01
        autoparal           1
           diemac      1.20000000E+01
             ecut      4.50000000E+01 Hartree
          ecuteps      8.00000000E+00 Hartree
          ecutwfn      4.50000000E+01 Hartree
-          fftalg         512
           getwfk           2
           istwfk        1    0    0    0    1    0    0    0    0    0
                         0    0    0    0    0    0    0    0    0    0
                         1    0    0    0    0    0    0    0    0
              ixc          11
           jdtset        3
              kpt      0.00000000E+00  0.00000000E+00  0.00000000E+00
                       1.25000000E-01  0.00000000E+00  0.00000000E+00
                       2.50000000E-01  0.00000000E+00  0.00000000E+00
                       3.75000000E-01  0.00000000E+00  0.00000000E+00
                       5.00000000E-01  0.00000000E+00  0.00000000E+00
                       1.25000000E-01  1.25000000E-01  0.00000000E+00
                       2.50000000E-01  1.25000000E-01  0.00000000E+00
                       3.75000000E-01  1.25000000E-01  0.00000000E+00
                       5.00000000E-01  1.25000000E-01  0.00000000E+00
                      -3.75000000E-01  1.25000000E-01  0.00000000E+00
                      -2.50000000E-01  1.25000000E-01  0.00000000E+00
                      -1.25000000E-01  1.25000000E-01  0.00000000E+00
                       2.50000000E-01  2.50000000E-01  0.00000000E+00
                       3.75000000E-01  2.50000000E-01  0.00000000E+00
                       5.00000000E-01  2.50000000E-01  0.00000000E+00
                      -3.75000000E-01  2.50000000E-01  0.00000000E+00
                      -2.50000000E-01  2.50000000E-01  0.00000000E+00
                       3.75000000E-01  3.75000000E-01  0.00000000E+00
                       5.00000000E-01  3.75000000E-01  0.00000000E+00
                      -3.75000000E-01  3.75000000E-01  0.00000000E+00
                       5.00000000E-01  5.00000000E-01  0.00000000E+00
                       3.75000000E-01  2.50000000E-01  1.25000000E-01
                       5.00000000E-01  2.50000000E-01  1.25000000E-01
                      -3.75000000E-01  2.50000000E-01  1.25000000E-01
                       5.00000000E-01  3.75000000E-01  1.25000000E-01
                      -3.75000000E-01  3.75000000E-01  1.25000000E-01
                      -2.50000000E-01  3.75000000E-01  1.25000000E-01
                      -3.75000000E-01  5.00000000E-01  1.25000000E-01
                      -2.50000000E-01  5.00000000E-01  2.50000000E-01
         kptrlatt        8    0    0      0    8    0      0    0    8
          kptrlen      5.42136558E+01
P           mkmem           1
            natom           3
            nband        1024
           ndtset           1
            ngfft          45      45      45
             nkpt          29
           npweps         259
           npwwfn        3143
            nstep         150
             nsym          48
           ntypat           2
              occ      2.000000  2.000000  2.000000  2.000000  2.000000  2.000000
                       2.000000  2.000000  2.000000  2.000000  2.000000  2.000000
                       0.000000  0.000000  0.000000  0.000000  0.000000  0.000000
                       0.000000  0.000000  0.000000  0.000000  0.000000  0.000000
                       0.000000  0.000000  0.000000  0.000000  0.000000  0.000000
                       0.000000  0.000000  0.000000  0.000000  0.000000  0.000000
                       0.000000  0.000000  0.000000  0.000000  0.000000  0.000000
                       0.000000  0.000000  0.000000  0.000000  0.000000  0.000000
                       0.000000  0.000000  0.000000  0.000000  0.000000  0.000000
                       0.000000  0.000000  0.000000  0.000000  0.000000  0.000000
                       0.000000  0.000000  0.000000  0.000000  0.000000  0.000000
                       0.000000  0.000000  0.000000  0.000000  0.000000  0.000000
                       0.000000  0.000000  0.000000  0.000000  0.000000  0.000000
                       0.000000  0.000000  0.000000  0.000000  0.000000  0.000000
                       0.000000  0.000000  0.000000  0.000000  0.000000  0.000000
                       0.000000  0.000000  0.000000  0.000000  0.000000  0.000000
                       0.000000  0.000000  0.000000  0.000000  0.000000  0.000000
                       0.000000  0.000000  0.000000  0.000000  0.000000  0.000000
                       0.000000  0.000000  0.000000  0.000000  0.000000  0.000000
                       0.000000  0.000000  0.000000  0.000000  0.000000  0.000000
                       0.000000  0.000000  0.000000  0.000000  0.000000  0.000000
                       0.000000  0.000000  0.000000  0.000000  0.000000  0.000000
                       0.000000  0.000000  0.000000  0.000000  0.000000  0.000000
                       0.000000  0.000000  0.000000  0.000000  0.000000  0.000000
                       0.000000  0.000000  0.000000  0.000000  0.000000  0.000000
                       0.000000  0.000000  0.000000  0.000000  0.000000  0.000000
                       0.000000  0.000000  0.000000  0.000000  0.000000  0.000000
                       0.000000  0.000000  0.000000  0.000000  0.000000  0.000000
                       0.000000  0.000000  0.000000  0.000000  0.000000  0.000000
                       0.000000  0.000000  0.000000  0.000000  0.000000  0.000000
                       0.000000  0.000000  0.000000  0.000000  0.000000  0.000000
                       0.000000  0.000000  0.000000  0.000000  0.000000  0.000000
                       0.000000  0.000000  0.000000  0.000000  0.000000  0.000000
                       0.000000  0.000000  0.000000  0.000000  0.000000  0.000000
                       0.000000  0.000000  0.000000  0.000000  0.000000  0.000000
                       0.000000  0.000000  0.000000  0.000000  0.000000  0.000000
                       0.000000  0.000000  0.000000  0.000000  0.000000  0.000000
                       0.000000  0.000000  0.000000  0.000000  0.000000  0.000000
                       0.000000  0.000000  0.000000  0.000000  0.000000  0.000000
                       0.000000  0.000000  0.000000  0.000000  0.000000  0.000000
                       0.000000  0.000000  0.000000  0.000000  0.000000  0.000000
                       0.000000  0.000000  0.000000  0.000000  0.000000  0.000000
                       0.000000  0.000000  0.000000  0.000000  0.000000  0.000000
                       0.000000  0.000000  0.000000  0.000000  0.000000  0.000000
                       0.000000  0.000000  0.000000  0.000000  0.000000  0.000000
                       0.000000  0.000000  0.000000  0.000000  0.000000  0.000000
                       0.000000  0.000000  0.000000  0.000000  0.000000  0.000000
                       0.000000  0.000000  0.000000  0.000000  0.000000  0.000000
                       0.000000  0.000000  0.000000  0.000000  0.000000  0.000000
                       0.000000  0.000000  0.000000  0.000000  0.000000  0.000000
                       0.000000  0.000000  0.000000  0.000000  0.000000  0.000000
                       0.000000  0.000000  0.000000  0.000000  0.000000  0.000000
                       0.000000  0.000000  0.000000  0.000000  0.000000  0.000000
                       0.000000  0.000000  0.000000  0.000000  0.000000  0.000000
                       0.000000  0.000000  0.000000  0.000000  0.000000  0.000000
                       0.000000  0.000000  0.000000  0.000000  0.000000  0.000000
                       0.000000  0.000000  0.000000  0.000000  0.000000  0.000000
                       0.000000  0.000000  0.000000  0.000000  0.000000  0.000000
                       0.000000  0.000000  0.000000  0.000000  0.000000  0.000000
                       0.000000  0.000000  0.000000  0.000000  0.000000  0.000000
                       0.000000  0.000000  0.000000  0.000000  0.000000  0.000000
                       0.000000  0.000000  0.000000  0.000000  0.000000  0.000000
                       0.000000  0.000000  0.000000  0.000000  0.000000  0.000000
                       0.000000  0.000000  0.000000  0.000000  0.000000  0.000000
                       0.000000  0.000000  0.000000  0.000000  0.000000  0.000000
                       0.000000  0.000000  0.000000  0.000000  0.000000  0.000000
                       0.000000  0.000000  0.000000  0.000000  0.000000  0.000000
                       0.000000  0.000000  0.000000  0.000000  0.000000  0.000000
                       0.000000  0.000000  0.000000  0.000000  0.000000  0.000000
                       0.000000  0.000000  0.000000  0.000000  0.000000  0.000000
                       0.000000  0.000000  0.000000  0.000000  0.000000  0.000000
                       0.000000  0.000000  0.000000  0.000000  0.000000  0.000000
                       0.000000  0.000000  0.000000  0.000000  0.000000  0.000000
                       0.000000  0.000000  0.000000  0.000000  0.000000  0.000000
                       0.000000  0.000000  0.000000  0.000000  0.000000  0.000000
                       0.000000  0.000000  0.000000  0.000000  0.000000  0.000000
                       0.000000  0.000000  0.000000  0.000000  0.000000  0.000000
                       0.000000  0.000000  0.000000  0.000000  0.000000  0.000000
                       0.000000  0.000000  0.000000  0.000000  0.000000  0.000000
                       0.000000  0.000000  0.000000  0.000000  0.000000  0.000000
                       0.000000  0.000000  0.000000  0.000000  0.000000  0.000000
                       0.000000  0.000000  0.000000  0.000000  0.000000  0.000000
                       0.000000  0.000000  0.000000  0.000000  0.000000  0.000000
                       0.000000  0.000000  0.000000  0.000000  0.000000  0.000000
                       0.000000  0.000000  0.000000  0.000000  0.000000  0.000000
                       0.000000  0.000000  0.000000  0.000000  0.000000  0.000000
                       0.000000  0.000000  0.000000  0.000000  0.000000  0.000000
                       0.000000  0.000000  0.000000  0.000000  0.000000  0.000000
                       0.000000  0.000000  0.000000  0.000000  0.000000  0.000000
                       0.000000  0.000000  0.000000  0.000000  0.000000  0.000000
                       0.000000  0.000000  0.000000  0.000000  0.000000  0.000000
                       0.000000  0.000000  0.000000  0.000000  0.000000  0.000000
                       0.000000  0.000000  0.000000  0.000000  0.000000  0.000000
                       0.000000  0.000000  0.000000  0.000000  0.000000  0.000000
                       0.000000  0.000000  0.000000  0.000000  0.000000  0.000000
                       0.000000  0.000000  0.000000  0.000000  0.000000  0.000000
                       0.000000  0.000000  0.000000  0.000000  0.000000  0.000000
                       0.000000  0.000000  0.000000  0.000000  0.000000  0.000000
                       0.000000  0.000000  0.000000  0.000000  0.000000  0.000000
                       0.000000  0.000000  0.000000  0.000000  0.000000  0.000000
                       0.000000  0.000000  0.000000  0.000000  0.000000  0.000000
                       0.000000  0.000000  0.000000  0.000000  0.000000  0.000000
                       0.000000  0.000000  0.000000  0.000000  0.000000  0.000000
                       0.000000  0.000000  0.000000  0.000000  0.000000  0.000000
                       0.000000  0.000000  0.000000  0.000000  0.000000  0.000000
                       0.000000  0.000000  0.000000  0.000000  0.000000  0.000000
                       0.000000  0.000000  0.000000  0.000000  0.000000  0.000000
                       0.000000  0.000000  0.000000  0.000000  0.000000  0.000000
                       0.000000  0.000000  0.000000  0.000000  0.000000  0.000000
                       0.000000  0.000000  0.000000  0.000000  0.000000  0.000000
                       0.000000  0.000000  0.000000  0.000000  0.000000  0.000000
                       0.000000  0.000000  0.000000  0.000000  0.000000  0.000000
                       0.000000  0.000000  0.000000  0.000000  0.000000  0.000000
                       0.000000  0.000000  0.000000  0.000000  0.000000  0.000000
                       0.000000  0.000000  0.000000  0.000000  0.000000  0.000000
                       0.000000  0.000000  0.000000  0.000000  0.000000  0.000000
                       0.000000  0.000000  0.000000  0.000000  0.000000  0.000000
                       0.000000  0.000000  0.000000  0.000000  0.000000  0.000000
                       0.000000  0.000000  0.000000  0.000000  0.000000  0.000000
                       0.000000  0.000000  0.000000  0.000000  0.000000  0.000000
                       0.000000  0.000000  0.000000  0.000000  0.000000  0.000000
                       0.000000  0.000000  0.000000  0.000000  0.000000  0.000000
                       0.000000  0.000000  0.000000  0.000000  0.000000  0.000000
                       0.000000  0.000000  0.000000  0.000000  0.000000  0.000000
                       0.000000  0.000000  0.000000  0.000000  0.000000  0.000000
                       0.000000  0.000000  0.000000  0.000000  0.000000  0.000000
                       0.000000  0.000000  0.000000  0.000000  0.000000  0.000000
                       0.000000  0.000000  0.000000  0.000000  0.000000  0.000000
                       0.000000  0.000000  0.000000  0.000000  0.000000  0.000000
                       0.000000  0.000000  0.000000  0.000000  0.000000  0.000000
                       0.000000  0.000000  0.000000  0.000000  0.000000  0.000000
                       0.000000  0.000000  0.000000  0.000000  0.000000  0.000000
                       0.000000  0.000000  0.000000  0.000000  0.000000  0.000000
                       0.000000  0.000000  0.000000  0.000000  0.000000  0.000000
                       0.000000  0.000000  0.000000  0.000000  0.000000  0.000000
                       0.000000  0.000000  0.000000  0.000000  0.000000  0.000000
                       0.000000  0.000000  0.000000  0.000000  0.000000  0.000000
                       0.000000  0.000000  0.000000  0.000000  0.000000  0.000000
                       0.000000  0.000000  0.000000  0.000000  0.000000  0.000000
                       0.000000  0.000000  0.000000  0.000000  0.000000  0.000000
                       0.000000  0.000000  0.000000  0.000000  0.000000  0.000000
                       0.000000  0.000000  0.000000  0.000000  0.000000  0.000000
                       0.000000  0.000000  0.000000  0.000000  0.000000  0.000000
                       0.000000  0.000000  0.000000  0.000000  0.000000  0.000000
                       0.000000  0.000000  0.000000  0.000000  0.000000  0.000000
                       0.000000  0.000000  0.000000  0.000000  0.000000  0.000000
                       0.000000  0.000000  0.000000  0.000000  0.000000  0.000000
                       0.000000  0.000000  0.000000  0.000000  0.000000  0.000000
                       0.000000  0.000000  0.000000  0.000000  0.000000  0.000000
                       0.000000  0.000000  0.000000  0.000000  0.000000  0.000000
                       0.000000  0.000000  0.000000  0.000000  0.000000  0.000000
                       0.000000  0.000000  0.000000  0.000000  0.000000  0.000000
                       0.000000  0.000000  0.000000  0.000000  0.000000  0.000000
                       0.000000  0.000000  0.000000  0.000000  0.000000  0.000000
                       0.000000  0.000000  0.000000  0.000000  0.000000  0.000000
                       0.000000  0.000000  0.000000  0.000000  0.000000  0.000000
                       0.000000  0.000000  0.000000  0.000000  0.000000  0.000000
                       0.000000  0.000000  0.000000  0.000000  0.000000  0.000000
                       0.000000  0.000000  0.000000  0.000000  0.000000  0.000000
                       0.000000  0.000000  0.000000  0.000000  0.000000  0.000000
                       0.000000  0.000000  0.000000  0.000000  0.000000  0.000000
                       0.000000  0.000000  0.000000  0.000000  0.000000  0.000000
                       0.000000  0.000000  0.000000  0.000000  0.000000  0.000000
                       0.000000  0.000000  0.000000  0.000000  0.000000  0.000000
                       0.000000  0.000000  0.000000  0.000000  0.000000  0.000000
                       0.000000  0.000000  0.000000  0.000000  0.000000  0.000000
                       0.000000  0.000000  0.000000  0.000000  0.000000  0.000000
                       0.000000  0.000000  0.000000  0.000000  0.000000  0.000000
                       0.000000  0.000000  0.000000  0.000000  0.000000  0.000000
                       0.000000  0.000000  0.000000  0.000000  0.000000  0.000000
                       0.000000  0.000000  0.000000  0.000000
        optdriver           3
            rprim      5.7735026919E-01  0.0000000000E+00  8.1649658093E-01
                      -2.8867513459E-01  5.0000000000E-01  8.1649658093E-01
                      -2.8867513459E-01 -5.0000000000E-01  8.1649658093E-01
          spgroup         225
           symrel      1  0  0   0  1  0   0  0  1      -1  0  0   0 -1  0   0  0 -1
                       0 -1  1   0 -1  0   1 -1  0       0  1 -1   0  1  0  -1  1  0
                      -1  0  0  -1  0  1  -1  1  0       1  0  0   1  0 -1   1 -1  0
                       0  1 -1   1  0 -1   0  0 -1       0 -1  1  -1  0  1   0  0  1
                      -1  0  0  -1  1  0  -1  0  1       1  0  0   1 -1  0   1  0 -1
                       0 -1  1   1 -1  0   0 -1  0       0  1 -1  -1  1  0   0  1  0
                       1  0  0   0  0  1   0  1  0      -1  0  0   0  0 -1   0 -1  0
                       0  1 -1   0  0 -1   1  0 -1       0 -1  1   0  0  1  -1  0  1
                      -1  0  1  -1  1  0  -1  0  0       1  0 -1   1 -1  0   1  0  0
                       0 -1  0   1 -1  0   0 -1  1       0  1  0  -1  1  0   0  1 -1
                       1  0 -1   0  0 -1   0  1 -1      -1  0  1   0  0  1   0 -1  1
                       0  1  0   0  0  1   1  0  0       0 -1  0   0  0 -1  -1  0  0
                       1  0 -1   0  1 -1   0  0 -1      -1  0  1   0 -1  1   0  0  1
                       0 -1  0   0 -1  1   1 -1  0       0  1  0   0  1 -1  -1  1  0
                      -1  0  1  -1  0  0  -1  1  0       1  0 -1   1  0  0   1 -1  0
                       0  1  0   1  0  0   0  0  1       0 -1  0  -1  0  0   0  0 -1
                       0  0 -1   0  1 -1   1  0 -1       0  0  1   0 -1  1  -1  0  1
                       1 -1  0   0 -1  1   0 -1  0      -1  1  0   0  1 -1   0  1  0
                       0  0  1   1  0  0   0  1  0       0  0 -1  -1  0  0   0 -1  0
                      -1  1  0  -1  0  0  -1  0  1       1 -1  0   1  0  0   1  0 -1
                       0  0  1   0  1  0   1  0  0       0  0 -1   0 -1  0  -1  0  0
                       1 -1  0   0 -1  0   0 -1  1      -1  1  0   0  1  0   0  1 -1
                       0  0 -1   1  0 -1   0  1 -1       0  0  1  -1  0  1   0 -1  1
                      -1  1  0  -1  0  1  -1  0  0       1 -1  0   1  0 -1   1  0  0
           timopt          -1
            typat      1  2  2
              wtk        0.00195    0.01563    0.01563    0.01563    0.00781    0.01172
                         0.04688    0.04688    0.04688    0.04688    0.04688    0.02344
                         0.01172    0.04688    0.04688    0.04688    0.02344    0.01172
                         0.04688    0.02344    0.00586    0.04688    0.09375    0.04688
                         0.04688    0.09375    0.04688    0.02344    0.01172
           xangst      0.0000000000E+00  0.0000000000E+00  0.0000000000E+00
                       0.0000000000E+00  0.0000000000E+00  2.1960158597E+00
                       0.0000000000E+00  0.0000000000E+00  6.5880475791E+00
            xcart      0.0000000000E+00  0.0000000000E+00  0.0000000000E+00
                       0.0000000000E+00  0.0000000000E+00  4.1498685583E+00
                       0.0000000000E+00  0.0000000000E+00  1.2449605675E+01
             xred      0.0000000000E+00  0.0000000000E+00  0.0000000000E+00
                       2.5000000000E-01  2.5000000000E-01  2.5000000000E-01
                       7.5000000000E-01  7.5000000000E-01  7.5000000000E-01
            znucl       40.00000    8.00000
 
================================================================================
 
 chkinp: Checking input parameters for consistency, jdtset=   3.
 
================================================================================
== DATASET  3 ==================================================================
-   mpi_nproc: 48, omp_nthreads: -1 (-1 if OMP is not activated)
 

--- !DatasetInfo
iteration_state: {dtset: 3, }
dimensions: {natom: 3, nkpt: 29, mband: 1024, nsppol: 1, nspinor: 1, nspden: 1, mpw: 3218, }
cutoff_energies: {ecut:  45.0, pawecutdg:  -1.0, }
electrons: {nelect:   2.40000000E+01, charge:   0.00000000E+00, occopt:   1.00000000E+00, tsmear:   1.00000000E-02, }
meta: {optdriver: 3, gwcalctyp: 0, }
...

 mkfilename : getwfk/=0, take file _WFK from output of DATASET   2.
 
 Exchange-correlation functional for the present dataset will be:
  GGA: Perdew-Burke-Ernzerhof functional - ixc=11
 Citation for XC functional:
  J.P.Perdew, K.Burke, M.Ernzerhof, PRL 77, 3865 (1996)
 
 SCREENING: Calculation of the susceptibility and dielectric matrices 
 
 Based on a program developped by R.W. Godby, V. Olevano, G. Onida, and L. Reining.
 Incorporated in ABINIT by V. Olevano, G.-M. Rignanese, and M. Torrent.
.Using single precision arithmetic ; gwpc =  4
 
 Real(R)+Recip(G) space primitive vectors, cartesian coordinates (Bohr,Bohr^-1):
 R(1)=  3.9125336  0.0000000  5.5331581  G(1)=  0.1703926  0.0000000  0.0602429
 R(2)= -1.9562668  3.3883535  5.5331581  G(2)= -0.0851963  0.1475643  0.0602429
 R(3)= -1.9562668 -3.3883535  5.5331581  G(3)= -0.0851963 -0.1475643  0.0602429
 Unit cell volume ucvol=  2.2006001E+02 bohr^3
 Angles (23,13,12)=  6.00000000E+01  6.00000000E+01  6.00000000E+01 degrees
 
--- Pseudopotential description ------------------------------------------------
- pspini: atom type   1  psp file is ./Zr-sp.psp8
- pspatm: opening atomic psp file    ./Zr-sp.psp8
- Zr    ONCVPSP-3.2.3.1  r_core=   1.56507   1.56507   1.51006
- 40.00000  12.00000    170510                znucl, zion, pspdat
    8   11    2    4       600   0.00000      pspcod,pspxc,lmax,lloc,mmax,r2well
    5.99000000000000    5.00000000000000    0.00000000000000   rchrg,fchrg,qchrg
     nproj     2     2     2
     extension_switch     1
  pspatm : epsatm=   18.79873988
         --- l  ekb(1:nproj) -->
             0   10.621766    0.898805
             1    5.849837    0.750341
             2    1.531478    0.503023
 pspatm: atomic psp has been read  and splines computed
 
- pspini: atom type   2  psp file is ./O.psp8
- pspatm: opening atomic psp file    ./O.psp8
- O     ONCVPSP-3.2.3.1  r_core=   1.35509   1.45563   1.26150
-  8.00000   6.00000    170504                znucl, zion, pspdat
    8   11    2    4       600   0.00000      pspcod,pspxc,lmax,lloc,mmax,r2well
    5.99000000000000    4.00000000000000    0.00000000000000   rchrg,fchrg,qchrg
     nproj     2     2     1
     extension_switch     1
  pspatm : epsatm=    6.19546011
         --- l  ekb(1:nproj) -->
             0    6.056735    0.824024
             1   -4.717130   -1.149271
             2   -1.331955
 pspatm: atomic psp has been read  and splines computed
 
   7.48551842E+02                                ecore*ucvol(ha*bohr**3)
--------------------------------------------------------------------------------
 
 ==== K-mesh for the wavefunctions ====
 Number of points in the irreducible wedge :    29
 Reduced coordinates and weights : 
 
     1)     0.00000000E+00  0.00000000E+00  0.00000000E+00       0.00195
     2)     1.25000000E-01  0.00000000E+00  0.00000000E+00       0.01563
     3)     2.50000000E-01  0.00000000E+00  0.00000000E+00       0.01563
     4)     3.75000000E-01  0.00000000E+00  0.00000000E+00       0.01563
     5)     5.00000000E-01  0.00000000E+00  0.00000000E+00       0.00781
     6)     1.25000000E-01  1.25000000E-01  0.00000000E+00       0.01172
     7)     2.50000000E-01  1.25000000E-01  0.00000000E+00       0.04688
     8)     3.75000000E-01  1.25000000E-01  0.00000000E+00       0.04688
     9)     5.00000000E-01  1.25000000E-01  0.00000000E+00       0.04688
    10)    -3.75000000E-01  1.25000000E-01  0.00000000E+00       0.04688
    11)    -2.50000000E-01  1.25000000E-01  0.00000000E+00       0.04688
    12)    -1.25000000E-01  1.25000000E-01  0.00000000E+00       0.02344
    13)     2.50000000E-01  2.50000000E-01  0.00000000E+00       0.01172
    14)     3.75000000E-01  2.50000000E-01  0.00000000E+00       0.04688
    15)     5.00000000E-01  2.50000000E-01  0.00000000E+00       0.04688
    16)    -3.75000000E-01  2.50000000E-01  0.00000000E+00       0.04688
    17)    -2.50000000E-01  2.50000000E-01  0.00000000E+00       0.02344
    18)     3.75000000E-01  3.75000000E-01  0.00000000E+00       0.01172
    19)     5.00000000E-01  3.75000000E-01  0.00000000E+00       0.04688
    20)    -3.75000000E-01  3.75000000E-01  0.00000000E+00       0.02344
    21)     5.00000000E-01  5.00000000E-01  0.00000000E+00       0.00586
    22)     3.75000000E-01  2.50000000E-01  1.25000000E-01       0.04688
    23)     5.00000000E-01  2.50000000E-01  1.25000000E-01       0.09375
    24)    -3.75000000E-01  2.50000000E-01  1.25000000E-01       0.04688
    25)     5.00000000E-01  3.75000000E-01  1.25000000E-01       0.04688
    26)    -3.75000000E-01  3.75000000E-01  1.25000000E-01       0.09375
    27)    -2.50000000E-01  3.75000000E-01  1.25000000E-01       0.04688
    28)    -3.75000000E-01  5.00000000E-01  1.25000000E-01       0.02344
    29)    -2.50000000E-01  5.00000000E-01  2.50000000E-01       0.01172
 
 Together with 48 symmetry operations and time-reversal symmetry 
 yields   512 points in the full Brillouin Zone.
 
 
 ==== Q-mesh for the screening function ====
 Number of points in the irreducible wedge :    29
 Reduced coordinates and weights : 
 
     1)     0.00000000E+00  0.00000000E+00  0.00000000E+00       0.00195
     2)     1.25000000E-01  0.00000000E+00  0.00000000E+00       0.01563
     3)     2.50000000E-01  0.00000000E+00  0.00000000E+00       0.01563
     4)     3.75000000E-01  0.00000000E+00  0.00000000E+00       0.01563
     5)     5.00000000E-01  0.00000000E+00  0.00000000E+00       0.00781
     6)     1.25000000E-01  1.25000000E-01  0.00000000E+00       0.01172
     7)     2.50000000E-01  1.25000000E-01  0.00000000E+00       0.04688
     8)     3.75000000E-01  1.25000000E-01  0.00000000E+00       0.04688
     9)     5.00000000E-01  1.25000000E-01  0.00000000E+00       0.04688
    10)    -3.75000000E-01  1.25000000E-01  0.00000000E+00       0.04688
    11)    -2.50000000E-01  1.25000000E-01  0.00000000E+00       0.04688
    12)    -1.25000000E-01  1.25000000E-01  0.00000000E+00       0.02344
    13)     2.50000000E-01  2.50000000E-01  0.00000000E+00       0.01172
    14)     3.75000000E-01  2.50000000E-01  0.00000000E+00       0.04688
    15)     5.00000000E-01  2.50000000E-01  0.00000000E+00       0.04688
    16)    -3.75000000E-01  2.50000000E-01  0.00000000E+00       0.04688
    17)    -2.50000000E-01  2.50000000E-01  0.00000000E+00       0.02344
    18)     3.75000000E-01  3.75000000E-01  0.00000000E+00       0.01172
    19)     5.00000000E-01  3.75000000E-01  0.00000000E+00       0.04688
    20)    -3.75000000E-01  3.75000000E-01  0.00000000E+00       0.02344
    21)     5.00000000E-01  5.00000000E-01  0.00000000E+00       0.00586
    22)     3.75000000E-01  2.50000000E-01  1.25000000E-01       0.04688
    23)     5.00000000E-01  2.50000000E-01  1.25000000E-01       0.09375
    24)    -3.75000000E-01  2.50000000E-01  1.25000000E-01       0.04688
    25)     5.00000000E-01  3.75000000E-01  1.25000000E-01       0.04688
    26)    -3.75000000E-01  3.75000000E-01  1.25000000E-01       0.09375
    27)    -2.50000000E-01  3.75000000E-01  1.25000000E-01       0.04688
    28)    -3.75000000E-01  5.00000000E-01  1.25000000E-01       0.02344
    29)    -2.50000000E-01  5.00000000E-01  2.50000000E-01       0.01172
 
 Together with 48 symmetry operations and time-reversal symmetry 
 yields   512 points in the full Brillouin Zone.
 
 
 setmesh: FFT mesh size selected  =    30x   30x   30
          total number of points  =        27000
 
 
- screening: taking advantage of time-reversal symmetry 
- Maximum band index for partially occupied states nbvw = 12
- Remaining bands to be divided among processors   nbcw = 1012
- Number of bands treated by each node ~21
 
 Number of electrons calculated from density =   24.0000; Expected =   24.0000
 average of density, n =  0.109061
 r_s =    1.2984
 omega_plasma =   31.8560 [eV]
 
 
 calculating chi0 at frequencies [eV] :
  1    0.000000E+00    0.000000E+00
  2    0.000000E+00    3.185595E+01
 
 
--------------------------------------------------------------------------------
  q-point number  1        q = ( 0.000000, 0.000000, 0.000000) [r.l.u.]
--------------------------------------------------------------------------------
  chi0(G,G') at the    1 th omega   0.0000   0.0000 [eV]
       1       2       3       4       5       6       7       8       9
    1  -0.000   0.000  -0.000  -0.000   0.000   0.000  -0.000  -0.000   0.000
       -0.000   0.000  -0.000   0.000  -0.000   0.000  -0.000  -0.000  -0.000
 
    2   0.000 -19.711   3.793  -4.577   5.035  -4.577   5.035  -4.577   5.035
       -0.000   0.000  -0.000  -0.000   0.000  -0.000  -0.000  -0.000  -0.000
 
  chi0(G,G') at the    2 th omega   0.0000  31.8560 [eV]
       1       2       3       4       5       6       7       8       9
    1  -0.000   0.000  -0.000  -0.000   0.000   0.000  -0.000  -0.000   0.000
       -0.000   0.000  -0.000   0.000  -0.000  -0.000   0.000  -0.000   0.000
 
    2   0.000  -7.096   0.452   0.185   0.573   0.185   0.573   0.185   0.573
       -0.000   0.000  -0.000  -0.000  -0.000  -0.000  -0.000   0.000   0.000
 
 For q-point:  0.000010 0.000020 0.000030
  dielectric constant =   5.5041
  dielectric constant without local fields =   5.8782
 
  Average fulfillment of the sum rule on Im[epsilon] for q-point    1 :     99.60  [%]
  Heads and wings of the symmetrical epsilon^-1(G,G') 
 
   Upper and lower wings at the    1 th omega   0.0000   0.0000 [eV]
       1       2       3       4       5       6       7       8       9
      0.182   0.005  -0.005  -0.015   0.015   0.015  -0.015  -0.005   0.005
     -0.000   0.000  -0.000  -0.000   0.000   0.000  -0.000  -0.000  -0.000
       1       2       3       4       5       6       7       8       9
      0.182   0.005  -0.005  -0.015   0.015   0.015  -0.015  -0.005   0.005
     -0.000  -0.000   0.000   0.000  -0.000  -0.000   0.000   0.000   0.000
 
 
   Upper and lower wings at the    2 th omega   0.0000  31.8560 [eV]
       1       2       3       4       5       6       7       8       9
      0.666   0.012  -0.012  -0.035   0.035   0.035  -0.035  -0.012   0.012
     -0.000  -0.000  -0.000   0.000  -0.000  -0.000   0.000  -0.000   0.000
       1       2       3       4       5       6       7       8       9
      0.666   0.012  -0.012  -0.035   0.035   0.035  -0.035  -0.012   0.012
     -0.000   0.000   0.000  -0.000   0.000   0.000  -0.000   0.000  -0.000
 
 
 
 
--------------------------------------------------------------------------------
  q-point number  2        q = ( 0.125000, 0.000000, 0.000000) [r.l.u.]
--------------------------------------------------------------------------------
  chi0(G,G') at the    1 th omega   0.0000   0.0000 [eV]
       1       2       3       4       5       6       7       8       9
    1  -1.609  -0.723   0.284  -0.126  -0.348  -0.126  -0.348  -0.126  -0.348
        0.000   0.000   0.000   0.000  -0.000   0.000  -0.000   0.000  -0.000
 
    2  -0.723 -20.158   3.731  -4.994   5.236  -4.994   5.236  -4.994   5.236
       -0.000   0.000   0.000  -0.000  -0.000  -0.000  -0.000  -0.000   0.000
 
  chi0(G,G') at the    2 th omega   0.0000  31.8560 [eV]
       1       2       3       4       5       6       7       8       9
    1  -0.190  -0.290   0.253   0.049  -0.129   0.049  -0.129   0.049  -0.129
        0.000   0.000   0.000   0.000   0.000   0.000   0.000   0.000   0.000
 
    2  -0.290  -8.019   0.442  -0.107   0.723  -0.107   0.723  -0.107   0.723
       -0.000   0.000   0.000  -0.000  -0.000  -0.000  -0.000  -0.000  -0.000
 
  Average fulfillment of the sum rule on Im[epsilon] for q-point    2 :    100.21  [%]
 
 
--------------------------------------------------------------------------------
  q-point number  3        q = ( 0.250000, 0.000000, 0.000000) [r.l.u.]
--------------------------------------------------------------------------------
  chi0(G,G') at the    1 th omega   0.0000   0.0000 [eV]
       1       2       3       4       5       6       7       8       9
    1  -5.374  -1.582   0.188  -0.895  -0.760  -0.895  -0.760  -0.895  -0.760
        0.000   0.000  -0.000   0.000  -0.000   0.000  -0.000   0.000  -0.000
 
    2  -1.582 -20.352   3.561  -5.385   5.232  -5.385   5.232  -5.385   5.232
       -0.000   0.000   0.000  -0.000  -0.000  -0.000  -0.000   0.000   0.000
 
  chi0(G,G') at the    2 th omega   0.0000  31.8560 [eV]
       1       2       3       4       5       6       7       8       9
    1  -0.737  -0.596   0.450   0.007  -0.318   0.007  -0.318   0.007  -0.318
        0.000   0.000   0.000   0.000   0.000   0.000   0.000   0.000   0.000
 
    2  -0.596  -8.808   0.412  -0.429   0.867  -0.429   0.867  -0.429   0.867
       -0.000   0.000   0.000  -0.000  -0.000  -0.000  -0.000   0.000  -0.000
 
  Average fulfillment of the sum rule on Im[epsilon] for q-point    3 :    100.02  [%]
 
 
--------------------------------------------------------------------------------
  q-point number  4        q = ( 0.375000, 0.000000, 0.000000) [r.l.u.]
--------------------------------------------------------------------------------
  chi0(G,G') at the    1 th omega   0.0000   0.0000 [eV]
       1       2       3       4       5       6       7       8       9
    1  -9.500  -2.326   0.036  -1.967  -1.034  -1.968  -1.034  -1.967  -1.034
        0.000   0.000   0.000   0.000   0.000   0.000   0.000   0.000  -0.000
 
    2  -2.326 -20.322   3.286  -5.689   5.061  -5.689   5.061  -5.689   5.061
       -0.000   0.000   0.000   0.000  -0.000   0.000  -0.000   0.000   0.000
 
  chi0(G,G') at the    2 th omega   0.0000  31.8560 [eV]
       1       2       3       4       5       6       7       8       9
    1  -1.574  -0.898   0.576  -0.119  -0.541  -0.119  -0.541  -0.119  -0.541
        0.000   0.000   0.000   0.000   0.000   0.000   0.000   0.000   0.000
 
    2  -0.898  -9.453   0.364  -0.764   1.000  -0.764   1.000  -0.764   1.000
       -0.000   0.000   0.000   0.000  -0.000   0.000  -0.000   0.000  -0.000
 
  Average fulfillment of the sum rule on Im[epsilon] for q-point    4 :     99.89  [%]
 
 
--------------------------------------------------------------------------------
  q-point number  5        q = ( 0.500000, 0.000000, 0.000000) [r.l.u.]
--------------------------------------------------------------------------------
  chi0(G,G') at the    1 th omega   0.0000   0.0000 [eV]
       1       2       3       4       5       6       7       8       9
    1 -13.065  -2.909  -0.014  -2.870  -1.197  -2.870  -1.197  -2.870  -1.197
        0.000   0.000   0.000   0.000  -0.000   0.000  -0.000   0.000  -0.000
 
    2  -2.909 -20.103   2.885  -5.872   4.766  -5.872   4.766  -5.872   4.766
       -0.000   0.000   0.000   0.000  -0.000   0.000  -0.000   0.000  -0.000
 
  chi0(G,G') at the    2 th omega   0.0000  31.8560 [eV]
       1       2       3       4       5       6       7       8       9
    1  -2.612  -1.181   0.619  -0.310  -0.778  -0.310  -0.778  -0.310  -0.778
        0.000   0.000   0.000   0.000   0.000   0.000   0.000   0.000   0.000
 
    2  -1.181  -9.956   0.299  -1.093   1.116  -1.093   1.116  -1.093   1.116
       -0.000   0.000   0.000   0.000  -0.000   0.000  -0.000   0.000  -0.000
 
  Average fulfillment of the sum rule on Im[epsilon] for q-point    5 :     99.84  [%]
 
 
--------------------------------------------------------------------------------
  q-point number  6        q = ( 0.125000, 0.125000, 0.000000) [r.l.u.]
--------------------------------------------------------------------------------
  chi0(G,G') at the    1 th omega   0.0000   0.0000 [eV]
       1       2       3       4       5       6       7       8       9
    1  -2.108  -0.623   0.015   0.015  -0.623   0.015  -0.623  -0.623   0.015
        0.000   0.000   0.000   0.000   0.000   0.000   0.000   0.000   0.000
 
    2  -0.623 -19.966   3.751  -4.557   5.231  -4.557   5.231  -5.312   4.931
       -0.000   0.000   0.000  -0.000   0.000  -0.000  -0.000  -0.000   0.000
 
  chi0(G,G') at the    2 th omega   0.0000  31.8560 [eV]
       1       2       3       4       5       6       7       8       9
    1  -0.253  -0.225   0.132   0.132  -0.225   0.132  -0.225  -0.225   0.132
        0.000   0.000   0.000   0.000   0.000   0.000   0.000   0.000   0.000
 
    2  -0.225  -7.770   0.450   0.132   0.728   0.132   0.728  -0.360   0.580
       -0.000   0.000   0.000  -0.000  -0.000  -0.000  -0.000  -0.000   0.000
 
  Average fulfillment of the sum rule on Im[epsilon] for q-point    6 :    100.18  [%]
 
 
--------------------------------------------------------------------------------
  q-point number  7        q = ( 0.250000, 0.125000, 0.000000) [r.l.u.]
--------------------------------------------------------------------------------
  chi0(G,G') at the    1 th omega   0.0000   0.0000 [eV]
       1       2       3       4       5       6       7       8       9
    1  -5.055  -1.363  -0.031  -0.485  -1.027  -0.485  -1.027  -1.051  -0.470
        0.000   0.000   0.000   0.000   0.000   0.000   0.000   0.000   0.000
 
    2  -1.363 -20.228   3.628  -4.983   5.286  -4.983   5.286  -5.612   5.047
       -0.000   0.000   0.000  -0.000  -0.000  -0.000  -0.000   0.000   0.000
 
  chi0(G,G') at the    2 th omega   0.0000  31.8560 [eV]
       1       2       3       4       5       6       7       8       9
    1  -0.679  -0.521   0.345   0.124  -0.383   0.124  -0.383  -0.237  -0.063
        0.000   0.000   0.000   0.000   0.000   0.000   0.000   0.000   0.000
 
    2  -0.521  -8.593   0.427  -0.191   0.871  -0.191   0.871  -0.643   0.734
       -0.000   0.000   0.000  -0.000  -0.000  -0.000  -0.000   0.000   0.000
 
  Average fulfillment of the sum rule on Im[epsilon] for q-point    7 :    100.04  [%]
 
 
--------------------------------------------------------------------------------
  q-point number  8        q = ( 0.375000, 0.125000, 0.000000) [r.l.u.]
--------------------------------------------------------------------------------
  chi0(G,G') at the    1 th omega   0.0000   0.0000 [eV]
       1       2       3       4       5       6       7       8       9
    1  -8.867  -2.075  -0.222  -1.477  -1.297  -1.477  -1.297  -1.884  -0.872
        0.000   0.000   0.000   0.000   0.000   0.000   0.000   0.000   0.000
 
    2  -2.075 -20.270   3.410  -5.357   5.179  -5.357   5.179  -5.858   4.957
       -0.000   0.000   0.000  -0.000  -0.000  -0.000  -0.000   0.000   0.000
 
  chi0(G,G') at the    2 th omega   0.0000  31.8560 [eV]
       1       2       3       4       5       6       7       8       9
    1  -1.416  -0.820   0.492   0.023  -0.581   0.023  -0.581  -0.326  -0.304
        0.000   0.000   0.000   0.000   0.000   0.000   0.000   0.000   0.000
 
    2  -0.820  -9.277   0.386  -0.535   1.002  -0.535   1.002  -0.940   0.879
       -0.000   0.000   0.000  -0.000  -0.000  -0.000  -0.000   0.000  -0.000
 
  Average fulfillment of the sum rule on Im[epsilon] for q-point    8 :     99.90  [%]
 
 
--------------------------------------------------------------------------------
  q-point number  9        q = ( 0.500000, 0.125000, 0.000000) [r.l.u.]
--------------------------------------------------------------------------------
  chi0(G,G') at the    1 th omega   0.0000   0.0000 [eV]
       1       2       3       4       5       6       7       8       9
    1 -12.382  -2.659  -0.330  -2.471  -1.430  -2.471  -1.430  -2.702  -1.141
        0.000   0.000   0.000   0.000   0.000   0.000   0.000   0.000   0.000
 
    2  -2.659 -20.120   3.080  -5.623   4.941  -5.623   4.941  -6.006   4.711
       -0.000   0.000   0.000   0.000  -0.000   0.000  -0.000   0.000   0.000
 
  chi0(G,G') at the    2 th omega   0.0000  31.8560 [eV]
       1       2       3       4       5       6       7       8       9
    1  -2.380  -1.106   0.561  -0.154  -0.798  -0.154  -0.798  -0.478  -0.566
        0.000   0.000   0.000  -0.000   0.000  -0.000   0.000   0.000   0.000
 
    2  -1.106  -9.820   0.328  -0.881   1.119  -0.881   1.119  -1.235   1.010
       -0.000   0.000   0.000   0.000  -0.000  -0.000  -0.000   0.000   0.000
 
  Average fulfillment of the sum rule on Im[epsilon] for q-point    9 :     99.84  [%]
 
 
--------------------------------------------------------------------------------
  q-point number 10        q = (-0.375000, 0.125000, 0.000000) [r.l.u.]
--------------------------------------------------------------------------------
  chi0(G,G') at the    1 th omega   0.0000   0.0000 [eV]
       1       2       3       4       5       6       7       8       9
    1 -11.205  -0.328  -2.450  -1.242  -2.300  -1.242  -2.300  -1.392  -2.119
        0.000  -0.000  -0.000   0.000   0.000   0.000   0.000  -0.000   0.000
 
    2  -0.328 -15.224   3.217  -2.185   2.784  -2.185   2.784  -3.253   1.722
        0.000   0.000   0.000  -0.000   0.000  -0.000  -0.000  -0.000   0.000
 
  chi0(G,G') at the    2 th omega   0.0000  31.8560 [eV]
       1       2       3       4       5       6       7       8       9
    1  -2.038   0.547  -1.012  -0.567  -0.318  -0.567  -0.318  -0.795   0.043
        0.000  -0.000   0.000   0.000   0.000   0.000   0.000   0.000   0.000
 
    2   0.547  -3.479   0.349   0.863   0.199   0.863   0.199   0.342   0.042
        0.000   0.000   0.000  -0.000  -0.000  -0.000  -0.000  -0.000   0.000
 
  Average fulfillment of the sum rule on Im[epsilon] for q-point   10 :     99.85  [%]
 
 
--------------------------------------------------------------------------------
  q-point number 11        q = (-0.250000, 0.125000, 0.000000) [r.l.u.]
--------------------------------------------------------------------------------
  chi0(G,G') at the    1 th omega   0.0000   0.0000 [eV]
       1       2       3       4       5       6       7       8       9
    1  -7.539  -0.210  -1.808  -0.991  -1.365  -0.991  -1.365  -1.294  -1.001
        0.000  -0.000  -0.000   0.000   0.000   0.000   0.000  -0.000   0.000
 
    2  -0.210 -17.292   3.502  -2.997   3.677  -2.997   3.677  -4.026   2.851
        0.000   0.000   0.000  -0.000   0.000  -0.000  -0.000  -0.000   0.000
 
  chi0(G,G') at the    2 th omega   0.0000  31.8560 [eV]
       1       2       3       4       5       6       7       8       9
    1  -1.140   0.450  -0.720  -0.326  -0.178  -0.326  -0.178  -0.595   0.205
        0.000  -0.000   0.000   0.000   0.000   0.000   0.000   0.000   0.000
 
    2   0.450  -4.629   0.402   0.792   0.310   0.792   0.310   0.256   0.149
        0.000   0.000   0.000  -0.000  -0.000  -0.000  -0.000  -0.000   0.000
 
  Average fulfillment of the sum rule on Im[epsilon] for q-point   11 :     99.94  [%]
 
 
--------------------------------------------------------------------------------
  q-point number 12        q = (-0.125000, 0.125000, 0.000000) [r.l.u.]
--------------------------------------------------------------------------------
  chi0(G,G') at the    1 th omega   0.0000   0.0000 [eV]
       1       2       3       4       5       6       7       8       9
    1  -3.869  -0.050  -1.053  -0.584  -0.584  -0.584  -0.584  -1.053  -0.050
        0.000  -0.000  -0.000   0.000   0.000   0.000   0.000   0.000  -0.000
 
    2  -0.050 -18.632   3.684  -3.640   4.458  -3.640   4.458  -4.599   3.858
        0.000   0.000  -0.000   0.000  -0.000   0.000  -0.000   0.000   0.000
 
  chi0(G,G') at the    2 th omega   0.0000  31.8560 [eV]
       1       2       3       4       5       6       7       8       9
    1  -0.499   0.280  -0.420  -0.112  -0.112  -0.112  -0.112  -0.420   0.280
        0.000  -0.000   0.000   0.000   0.000   0.000   0.000   0.000   0.000
 
    2   0.280  -5.759   0.437   0.639   0.440   0.639   0.440   0.103   0.279
        0.000   0.000   0.000  -0.000  -0.000  -0.000  -0.000  -0.000   0.000
 
  Average fulfillment of the sum rule on Im[epsilon] for q-point   12 :    100.09  [%]
 
 
--------------------------------------------------------------------------------
  q-point number 13        q = ( 0.250000, 0.250000, 0.000000) [r.l.u.]
--------------------------------------------------------------------------------
  chi0(G,G') at the    1 th omega   0.0000   0.0000 [eV]
       1       2       3       4       5       6       7       8       9
    1  -6.844  -1.471  -0.538  -0.538  -1.471  -0.538  -1.471  -1.471  -0.538
        0.000   0.000   0.000   0.000   0.000   0.000   0.000   0.000   0.000
 
    2  -1.471 -20.003   3.685  -4.517   5.248  -4.517   5.248  -5.810   4.684
       -0.000   0.000   0.000  -0.000   0.000  -0.000  -0.000   0.000   0.000
 
  chi0(G,G') at the    2 th omega   0.0000  31.8560 [eV]
       1       2       3       4       5       6       7       8       9
    1  -0.973  -0.509   0.152   0.152  -0.509   0.152  -0.509  -0.509   0.152
        0.000   0.000   0.000   0.000   0.000   0.000   0.000   0.000   0.000
 
    2  -0.509  -8.441   0.447  -0.022   0.888  -0.022   0.888  -0.884   0.602
       -0.000   0.000   0.000  -0.000   0.000  -0.000   0.000   0.000   0.000
 
  Average fulfillment of the sum rule on Im[epsilon] for q-point   13 :     99.97  [%]
 
 
--------------------------------------------------------------------------------
  q-point number 14        q = ( 0.375000, 0.250000, 0.000000) [r.l.u.]
--------------------------------------------------------------------------------
  chi0(G,G') at the    1 th omega   0.0000   0.0000 [eV]
       1       2       3       4       5       6       7       8       9
    1  -9.780  -1.968  -0.807  -1.172  -1.792  -1.172  -1.792  -1.985  -1.006
        0.000   0.000   0.000   0.000   0.000  -0.000   0.000   0.000   0.000
 
    2  -1.968 -20.081   3.540  -4.897   5.210  -4.897   5.210  -5.981   4.754
       -0.000   0.000   0.000  -0.000  -0.000  -0.000  -0.000   0.000   0.000
 
  chi0(G,G') at the    2 th omega   0.0000  31.8560 [eV]
       1       2       3       4       5       6       7       8       9
    1  -1.581  -0.791   0.309   0.085  -0.678   0.085  -0.678  -0.564  -0.100
        0.000   0.000   0.000  -0.000   0.000  -0.000   0.000   0.000   0.000
 
    2  -0.791  -9.143   0.414  -0.360   1.017  -0.360   1.017  -1.141   0.757
       -0.000   0.000   0.000  -0.000  -0.000  -0.000  -0.000   0.000   0.000
 
  Average fulfillment of the sum rule on Im[epsilon] for q-point   14 :     99.88  [%]
 
 
--------------------------------------------------------------------------------
  q-point number 15        q = ( 0.500000, 0.250000, 0.000000) [r.l.u.]
--------------------------------------------------------------------------------
  chi0(G,G') at the    1 th omega   0.0000   0.0000 [eV]
       1       2       3       4       5       6       7       8       9
    1 -12.753  -2.419  -1.042  -2.037  -1.940  -2.037  -1.940  -2.626  -1.339
        0.000  -0.000   0.000   0.000   0.000   0.000   0.000   0.000   0.000
 
    2  -2.419 -19.987   3.304  -5.225   5.043  -5.225   5.043  -6.080   4.621
        0.000   0.000   0.000   0.000  -0.000  -0.000  -0.000   0.000   0.000
 
  chi0(G,G') at the    2 th omega   0.0000  31.8560 [eV]
       1       2       3       4       5       6       7       8       9
    1  -2.434  -1.065   0.397  -0.065  -0.869  -0.065  -0.869  -0.676  -0.380
        0.000   0.000   0.000  -0.000   0.000  -0.000   0.000   0.000   0.000
 
    2  -1.065  -9.709   0.365  -0.709   1.132  -0.709   1.132  -1.399   0.901
       -0.000   0.000   0.000   0.000  -0.000  -0.000  -0.000   0.000   0.000
 
  Average fulfillment of the sum rule on Im[epsilon] for q-point   15 :     99.83  [%]
 
 
--------------------------------------------------------------------------------
  q-point number 16        q = (-0.375000, 0.250000, 0.000000) [r.l.u.]
--------------------------------------------------------------------------------
  chi0(G,G') at the    1 th omega   0.0000   0.0000 [eV]
       1       2       3       4       5       6       7       8       9
    1 -13.180  -1.160  -2.379  -1.794  -2.399  -1.794  -2.399  -1.810  -2.152
        0.000  -0.000  -0.000   0.000   0.000   0.000   0.000  -0.000   0.000
 
    2  -1.160 -15.270   3.283  -2.197   2.981  -2.197   2.981  -3.820   0.655
        0.000   0.000   0.000  -0.000   0.000  -0.000  -0.000  -0.000   0.000
 
  chi0(G,G') at the    2 th omega   0.0000  31.8560 [eV]
       1       2       3       4       5       6       7       8       9
    1  -2.750   0.409  -1.148  -0.654  -0.548  -0.654  -0.548  -1.050   0.147
        0.000  -0.000   0.000   0.000   0.000   0.000   0.000   0.000   0.000
 
    2   0.409  -3.446   0.347   0.875   0.258   0.875   0.258  -0.063  -0.058
        0.000   0.000   0.000  -0.000   0.000  -0.000   0.000  -0.000   0.000
 
  Average fulfillment of the sum rule on Im[epsilon] for q-point   16 :     99.82  [%]
 
 
--------------------------------------------------------------------------------
  q-point number 17        q = (-0.250000, 0.250000, 0.000000) [r.l.u.]
--------------------------------------------------------------------------------
  chi0(G,G') at the    1 th omega   0.0000   0.0000 [eV]
       1       2       3       4       5       6       7       8       9
    1 -10.428  -1.144  -1.865  -1.663  -1.663  -1.663  -1.663  -1.865  -1.144
        0.000   0.000  -0.000   0.000   0.000   0.000   0.000   0.000  -0.000
 
    2  -1.144 -17.189   3.525  -2.853   3.662  -2.853   3.662  -4.514   1.732
       -0.000   0.000   0.000   0.000  -0.000   0.000  -0.000  -0.000   0.000
 
  chi0(G,G') at the    2 th omega   0.0000  31.8560 [eV]
       1       2       3       4       5       6       7       8       9
    1  -1.836   0.343  -0.877  -0.407  -0.407  -0.407  -0.407  -0.877   0.343
        0.000  -0.000   0.000   0.000   0.000   0.000   0.000   0.000  -0.000
 
    2   0.343  -4.533   0.401   0.848   0.358   0.848   0.358  -0.129   0.032
        0.000   0.000   0.000  -0.000  -0.000  -0.000  -0.000  -0.000   0.000
 
  Average fulfillment of the sum rule on Im[epsilon] for q-point   17 :     99.86  [%]
 
 
--------------------------------------------------------------------------------
  q-point number 18        q = ( 0.375000, 0.375000, 0.000000) [r.l.u.]
--------------------------------------------------------------------------------
  chi0(G,G') at the    1 th omega   0.0000   0.0000 [eV]
       1       2       3       4       5       6       7       8       9
    1 -11.815  -2.204  -1.358  -1.358  -2.204  -1.358  -2.204  -2.204  -1.358
        0.000   0.000   0.000   0.000   0.000   0.000  -0.000   0.000   0.000
 
    2  -2.204 -19.922   3.704  -4.536   5.185  -4.536   5.185  -6.089   4.436
       -0.000   0.000   0.000  -0.000  -0.000  -0.000   0.000   0.000   0.000
 
  chi0(G,G') at the    2 th omega   0.0000  31.8560 [eV]
       1       2       3       4       5       6       7       8       9
    1  -2.051  -0.816   0.057   0.057  -0.816   0.057  -0.816  -0.816   0.057
        0.000   0.000   0.000   0.000   0.000   0.000   0.000   0.000   0.000
 
    2  -0.816  -9.064   0.449  -0.261   1.043  -0.261   1.043  -1.356   0.640
       -0.000   0.000   0.000  -0.000   0.000  -0.000   0.000   0.000   0.000
 
  Average fulfillment of the sum rule on Im[epsilon] for q-point   18 :     99.84  [%]
 
 
--------------------------------------------------------------------------------
  q-point number 19        q = ( 0.500000, 0.375000, 0.000000) [r.l.u.]
--------------------------------------------------------------------------------
  chi0(G,G') at the    1 th omega   0.0000   0.0000 [eV]
       1       2       3       4       5       6       7       8       9
    1 -14.105  -2.434  -1.732  -1.922  -2.423  -1.922  -2.423  -2.660  -1.743
        0.000   0.000  -0.000  -0.000   0.000  -0.000   0.000  -0.000   0.000
 
    2  -2.434 -19.824   3.560  -4.842   5.078  -4.842   5.078  -6.149   4.484
       -0.000   0.000   0.000   0.000  -0.000  -0.000  -0.000   0.000   0.000
 
  chi0(G,G') at the    2 th omega   0.0000  31.8560 [eV]
       1       2       3       4       5       6       7       8       9
    1  -2.770  -1.068   0.154  -0.058  -0.979  -0.058  -0.979  -0.893  -0.233
        0.000   0.000   0.000  -0.000   0.000  -0.000   0.000   0.000   0.000
 
    2  -1.068  -9.635   0.410  -0.597   1.155  -0.597   1.155  -1.576   0.795
       -0.000   0.000   0.000  -0.000  -0.000  -0.000  -0.000   0.000   0.000
 
  Average fulfillment of the sum rule on Im[epsilon] for q-point   19 :     99.81  [%]
 
 
--------------------------------------------------------------------------------
  q-point number 20        q = (-0.375000, 0.375000, 0.000000) [r.l.u.]
--------------------------------------------------------------------------------
  chi0(G,G') at the    1 th omega   0.0000   0.0000 [eV]
       1       2       3       4       5       6       7       8       9
    1 -14.965  -2.011  -2.219  -2.355  -2.355  -2.355  -2.355  -2.219  -2.011
        0.000   0.000  -0.000   0.000   0.000   0.000   0.000  -0.000  -0.000
 
    2  -2.011 -16.113   3.484  -2.824   3.332  -2.824   3.332  -4.340  -0.178
       -0.000   0.000   0.000   0.000  -0.000   0.000  -0.000  -0.000   0.000
 
  chi0(G,G') at the    2 th omega   0.0000  31.8560 [eV]
       1       2       3       4       5       6       7       8       9
    1  -3.638   0.185  -1.293  -0.789  -0.789  -0.789  -0.789  -1.293   0.185
        0.000   0.000   0.000   0.000   0.000   0.000   0.000   0.000   0.000
 
    2   0.185  -3.661   0.359   0.751   0.344   0.751   0.344  -0.474  -0.127
       -0.000   0.000   0.000  -0.000  -0.000  -0.000  -0.000  -0.000   0.000
 
  Average fulfillment of the sum rule on Im[epsilon] for q-point   20 :     99.80  [%]
 
 
--------------------------------------------------------------------------------
  q-point number 21        q = ( 0.500000, 0.500000, 0.000000) [r.l.u.]
--------------------------------------------------------------------------------
  chi0(G,G') at the    1 th omega   0.0000   0.0000 [eV]
       1       2       3       4       5       6       7       8       9
    1 -15.839  -2.719  -2.208  -2.208  -2.719  -2.208  -2.719  -2.719  -2.208
        0.000   0.000  -0.000  -0.000  -0.000  -0.000  -0.000   0.000  -0.000
 
    2  -2.719 -19.786   3.875  -4.717   5.090  -4.717   5.090  -6.190   4.324
       -0.000   0.000   0.000  -0.000  -0.000  -0.000   0.000  -0.000   0.000
 
  chi0(G,G') at the    2 th omega   0.0000  31.8560 [eV]
       1       2       3       4       5       6       7       8       9
    1  -3.345  -1.115  -0.135  -0.135  -1.115  -0.135  -1.115  -1.115  -0.135
        0.000   0.000   0.000   0.000   0.000   0.000   0.000   0.000   0.000
 
    2  -1.115  -9.607   0.462  -0.562   1.187  -0.562   1.187  -1.760   0.697
       -0.000   0.000   0.000  -0.000  -0.000  -0.000   0.000  -0.000   0.000
 
  Average fulfillment of the sum rule on Im[epsilon] for q-point   21 :     99.80  [%]
 
 
--------------------------------------------------------------------------------
  q-point number 22        q = ( 0.375000, 0.250000, 0.125000) [r.l.u.]
--------------------------------------------------------------------------------
  chi0(G,G') at the    1 th omega   0.0000   0.0000 [eV]
       1       2       3       4       5       6       7       8       9
    1  -7.897  -1.623  -0.655  -0.951  -1.485  -0.655  -1.623  -1.485  -0.951
        0.000   0.000   0.000   0.000   0.000   0.000   0.000   0.000   0.000
 
    2  -1.623 -20.102   3.598  -5.160   5.173  -4.558   5.287  -5.755   4.909
       -0.000   0.000   0.000  -0.000   0.000  -0.000  -0.000  -0.000   0.000
 
  chi0(G,G') at the    2 th omega   0.0000  31.8560 [eV]
       1       2       3       4       5       6       7       8       9
    1  -1.197  -0.669   0.307  -0.098  -0.417   0.307  -0.669  -0.417  -0.098
        0.000   0.000   0.000   0.000   0.000   0.000   0.000   0.000   0.000
 
    2  -0.669  -8.894   0.423  -0.523   0.892  -0.027   1.000  -0.916   0.751
       -0.000   0.000   0.000  -0.000   0.000  -0.000  -0.000  -0.000   0.000
 
  Average fulfillment of the sum rule on Im[epsilon] for q-point   22 :     99.93  [%]
 
 
--------------------------------------------------------------------------------
  q-point number 23        q = ( 0.500000, 0.250000, 0.125000) [r.l.u.]
--------------------------------------------------------------------------------
  chi0(G,G') at the    1 th omega   0.0000   0.0000 [eV]
       1       2       3       4       5       6       7       8       9
    1 -11.110  -2.188  -0.835  -1.796  -1.732  -1.658  -1.719  -2.219  -1.274
        0.000  -0.000   0.000   0.000   0.000  -0.000   0.000   0.000   0.000
 
    2  -2.188 -20.093   3.389  -5.470   5.048  -4.967   5.160  -5.937   4.809
        0.000   0.000   0.000   0.000   0.000  -0.000  -0.000   0.000   0.000
 
  chi0(G,G') at the    2 th omega   0.0000  31.8560 [eV]
       1       2       3       4       5       6       7       8       9
    1  -1.991  -0.954   0.423  -0.214  -0.630   0.171  -0.846  -0.519  -0.357
        0.000   0.000   0.000   0.000   0.000   0.000   0.000   0.000   0.000
 
    2  -0.954  -9.514   0.379  -0.842   1.022  -0.401   1.117  -1.192   0.895
       -0.000   0.000   0.000   0.000   0.000  -0.000  -0.000   0.000   0.000
 
  Average fulfillment of the sum rule on Im[epsilon] for q-point   23 :     99.85  [%]
 
 
--------------------------------------------------------------------------------
  q-point number 24        q = (-0.375000, 0.250000, 0.125000) [r.l.u.]
--------------------------------------------------------------------------------
  chi0(G,G') at the    1 th omega   0.0000   0.0000 [eV]
       1       2       3       4       5       6       7       8       9
    1 -13.965  -0.895  -2.667  -1.836  -2.569  -1.474  -2.856  -1.729  -2.561
        0.000  -0.000  -0.000  -0.000   0.000   0.000   0.000  -0.000   0.000
 
    2  -0.895 -13.965   3.075  -2.440   2.077  -1.081   2.918  -3.197   0.752
        0.000   0.000   0.000  -0.000   0.000  -0.000  -0.000  -0.000   0.000
 
  chi0(G,G') at the    2 th omega   0.0000  31.8560 [eV]
       1       2       3       4       5       6       7       8       9
    1  -2.975   0.463  -1.222  -0.855  -0.392  -0.629  -0.672  -1.036  -0.040
        0.000  -0.000   0.000   0.000   0.000   0.000   0.000   0.000   0.000
 
    2   0.463  -2.975   0.319   0.566   0.122   1.135   0.256   0.120  -0.038
        0.000   0.000   0.000  -0.000   0.000  -0.000  -0.000  -0.000   0.000
 
  Average fulfillment of the sum rule on Im[epsilon] for q-point   24 :     99.82  [%]
 
 
--------------------------------------------------------------------------------
  q-point number 25        q = ( 0.500000, 0.375000, 0.125000) [r.l.u.]
--------------------------------------------------------------------------------
  chi0(G,G') at the    1 th omega   0.0000   0.0000 [eV]
       1       2       3       4       5       6       7       8       9
    1 -12.264  -2.144  -1.460  -1.544  -2.286  -1.460  -2.144  -2.286  -1.544
        0.000   0.000   0.000   0.000   0.000  -0.000   0.000   0.000   0.000
 
    2  -2.144 -19.910   3.573  -5.050   5.118  -4.488   5.139  -6.028   4.635
       -0.000   0.000   0.000  -0.000   0.000  -0.000  -0.000  -0.000   0.000
 
  chi0(G,G') at the    2 th omega   0.0000  31.8560 [eV]
       1       2       3       4       5       6       7       8       9
    1  -2.245  -0.942   0.211  -0.184  -0.744   0.211  -0.942  -0.744  -0.184
        0.000   0.000   0.000   0.000   0.000   0.000   0.000   0.000   0.000
 
    2  -0.942  -9.413   0.415  -0.713   1.046  -0.244   1.131  -1.380   0.782
       -0.000   0.000   0.000   0.000   0.000  -0.000  -0.000  -0.000   0.000
 
  Average fulfillment of the sum rule on Im[epsilon] for q-point   25 :     99.83  [%]
 
 
--------------------------------------------------------------------------------
  q-point number 26        q = (-0.375000, 0.375000, 0.125000) [r.l.u.]
--------------------------------------------------------------------------------
  chi0(G,G') at the    1 th omega   0.0000   0.0000 [eV]
       1       2       3       4       5       6       7       8       9
    1 -15.426  -1.658  -2.529  -2.343  -2.494  -1.970  -2.828  -2.053  -2.483
        0.000  -0.000   0.000   0.000   0.000   0.000   0.000  -0.000   0.000
 
    2  -1.658 -14.600   3.241  -2.840   2.584  -1.575   3.261  -3.780  -0.067
        0.000   0.000   0.000  -0.000   0.000  -0.000  -0.000  -0.000   0.000
 
  chi0(G,G') at the    2 th omega   0.0000  31.8560 [eV]
       1       2       3       4       5       6       7       8       9
    1  -3.760   0.270  -1.351  -0.957  -0.646  -0.745  -0.880  -1.268   0.017
        0.000  -0.000   0.000   0.000   0.000   0.000   0.000   0.000   0.000
 
    2   0.270  -3.115   0.324   0.494   0.208   1.052   0.328  -0.291  -0.112
        0.000   0.000   0.000  -0.000   0.000  -0.000   0.000  -0.000   0.000
 
  Average fulfillment of the sum rule on Im[epsilon] for q-point   26 :     99.81  [%]
 
 
--------------------------------------------------------------------------------
  q-point number 27        q = (-0.250000, 0.375000, 0.125000) [r.l.u.]
--------------------------------------------------------------------------------
  chi0(G,G') at the    1 th omega   0.0000   0.0000 [eV]
       1       2       3       4       5       6       7       8       9
    1 -13.423  -1.730  -2.142  -2.344  -1.932  -1.932  -2.344  -2.142  -1.730
        0.000  -0.000  -0.000   0.000   0.000   0.000   0.000   0.000  -0.000
 
    2  -1.730 -16.519   3.497  -3.313   3.090  -2.101   3.693  -4.415   0.718
        0.000   0.000   0.000   0.000   0.000  -0.000  -0.000  -0.000   0.000
 
  chi0(G,G') at the    2 th omega   0.0000  31.8560 [eV]
       1       2       3       4       5       6       7       8       9
    1  -2.799   0.256  -1.107  -0.735  -0.477  -0.477  -0.735  -1.107   0.256
        0.000  -0.000   0.000   0.000   0.000   0.000   0.000   0.000   0.000
 
    2   0.256  -4.110   0.384   0.517   0.286   1.111   0.411  -0.318  -0.048
        0.000   0.000   0.000  -0.000   0.000  -0.000  -0.000  -0.000   0.000
 
  Average fulfillment of the sum rule on Im[epsilon] for q-point   27 :     99.81  [%]
 
 
--------------------------------------------------------------------------------
  q-point number 28        q = (-0.375000, 0.500000, 0.125000) [r.l.u.]
--------------------------------------------------------------------------------
  chi0(G,G') at the    1 th omega   0.0000   0.0000 [eV]
       1       2       3       4       5       6       7       8       9
    1 -16.608  -2.258  -2.372  -2.715  -2.362  -2.362  -2.715  -2.372  -2.258
        0.000   0.000  -0.000   0.000   0.000   0.000   0.000  -0.000  -0.000
 
    2  -2.258 -15.940   3.496  -3.658   3.181  -2.629   3.675  -4.295  -0.523
       -0.000   0.000   0.000   0.000   0.000  -0.000  -0.000  -0.000  -0.000
 
  chi0(G,G') at the    2 th omega   0.0000  31.8560 [eV]
       1       2       3       4       5       6       7       8       9
    1  -4.661   0.010  -1.483  -1.089  -0.898  -0.898  -1.089  -1.483   0.010
        0.000  -0.000   0.000   0.000   0.000   0.000   0.000   0.000   0.000
 
    2   0.010  -3.505   0.347   0.306   0.321   0.833   0.426  -0.696  -0.154
        0.000   0.000   0.000  -0.000   0.000  -0.000  -0.000  -0.000   0.000
 
  Average fulfillment of the sum rule on Im[epsilon] for q-point   28 :     99.80  [%]
 
 
--------------------------------------------------------------------------------
  q-point number 29        q = (-0.250000, 0.500000, 0.250000) [r.l.u.]
--------------------------------------------------------------------------------
  chi0(G,G') at the    1 th omega   0.0000   0.0000 [eV]
       1       2       3       4       5       6       7       8       9
    1 -16.207  -2.286  -2.423  -2.837  -2.246  -2.246  -2.837  -2.423  -2.286
        0.000  -0.000  -0.000   0.000   0.000   0.000   0.000  -0.000  -0.000
 
    2  -2.286 -16.207   3.541  -3.956   2.835  -1.780   3.890  -4.366   0.289
        0.000   0.000   0.000   0.000   0.000  -0.000  -0.000  -0.000   0.000
 
  chi0(G,G') at the    2 th omega   0.0000  31.8560 [eV]
       1       2       3       4       5       6       7       8       9
    1  -3.963   0.061  -1.338  -1.051  -0.618  -0.618  -1.051  -1.338   0.061
        0.000  -0.000   0.000   0.000   0.000   0.000   0.000   0.000   0.000
 
    2   0.061  -3.963   0.378   0.106   0.261   1.204   0.487  -0.574  -0.076
        0.000   0.000   0.000  -0.000   0.000  -0.000  -0.000  -0.000   0.000
 
  Average fulfillment of the sum rule on Im[epsilon] for q-point   29 :     99.80  [%]
 
== END DATASET(S) ==============================================================
================================================================================
  
 -outvars: echo values of variables after computation  --------
            acell      6.7767069783E+00  6.7767069783E+00  6.7767069783E+00 Bohr
              amu      9.12240000E+01  1.59994000E+01
        autoparal           1
           diemac      1.20000000E+01
             ecut      4.50000000E+01 Hartree
          ecuteps      8.00000000E+00 Hartree
          ecutwfn      4.50000000E+01 Hartree
           etotal3     0.0000000000E+00
            fcart3     0.0000000000E+00  0.0000000000E+00  0.0000000000E+00
                       0.0000000000E+00  0.0000000000E+00  0.0000000000E+00
                       0.0000000000E+00  0.0000000000E+00  0.0000000000E+00
-          fftalg         512
           getwfk           2
           istwfk        1    0    0    0    1    0    0    0    0    0
                         0    0    0    0    0    0    0    0    0    0
                         1    0    0    0    0    0    0    0    0
              ixc          11
           jdtset        3
              kpt      0.00000000E+00  0.00000000E+00  0.00000000E+00
                       1.25000000E-01  0.00000000E+00  0.00000000E+00
                       2.50000000E-01  0.00000000E+00  0.00000000E+00
                       3.75000000E-01  0.00000000E+00  0.00000000E+00
                       5.00000000E-01  0.00000000E+00  0.00000000E+00
                       1.25000000E-01  1.25000000E-01  0.00000000E+00
                       2.50000000E-01  1.25000000E-01  0.00000000E+00
                       3.75000000E-01  1.25000000E-01  0.00000000E+00
                       5.00000000E-01  1.25000000E-01  0.00000000E+00
                      -3.75000000E-01  1.25000000E-01  0.00000000E+00
                      -2.50000000E-01  1.25000000E-01  0.00000000E+00
                      -1.25000000E-01  1.25000000E-01  0.00000000E+00
                       2.50000000E-01  2.50000000E-01  0.00000000E+00
                       3.75000000E-01  2.50000000E-01  0.00000000E+00
                       5.00000000E-01  2.50000000E-01  0.00000000E+00
                      -3.75000000E-01  2.50000000E-01  0.00000000E+00
                      -2.50000000E-01  2.50000000E-01  0.00000000E+00
                       3.75000000E-01  3.75000000E-01  0.00000000E+00
                       5.00000000E-01  3.75000000E-01  0.00000000E+00
                      -3.75000000E-01  3.75000000E-01  0.00000000E+00
                       5.00000000E-01  5.00000000E-01  0.00000000E+00
                       3.75000000E-01  2.50000000E-01  1.25000000E-01
                       5.00000000E-01  2.50000000E-01  1.25000000E-01
                      -3.75000000E-01  2.50000000E-01  1.25000000E-01
                       5.00000000E-01  3.75000000E-01  1.25000000E-01
                      -3.75000000E-01  3.75000000E-01  1.25000000E-01
                      -2.50000000E-01  3.75000000E-01  1.25000000E-01
                      -3.75000000E-01  5.00000000E-01  1.25000000E-01
                      -2.50000000E-01  5.00000000E-01  2.50000000E-01
         kptrlatt        8    0    0      0    8    0      0    0    8
          kptrlen      5.42136558E+01
P           mkmem           1
            natom           3
            nband        1024
           ndtset           1
            ngfft          45      45      45
             nkpt          29
           npweps         259
           npwwfn        3143
            nstep         150
             nsym          48
           ntypat           2
              occ      2.000000  2.000000  2.000000  2.000000  2.000000  2.000000
                       2.000000  2.000000  2.000000  2.000000  2.000000  2.000000
                       0.000000  0.000000  0.000000  0.000000  0.000000  0.000000
                       0.000000  0.000000  0.000000  0.000000  0.000000  0.000000
                       0.000000  0.000000  0.000000  0.000000  0.000000  0.000000
                       0.000000  0.000000  0.000000  0.000000  0.000000  0.000000
                       0.000000  0.000000  0.000000  0.000000  0.000000  0.000000
                       0.000000  0.000000  0.000000  0.000000  0.000000  0.000000
                       0.000000  0.000000  0.000000  0.000000  0.000000  0.000000
                       0.000000  0.000000  0.000000  0.000000  0.000000  0.000000
                       0.000000  0.000000  0.000000  0.000000  0.000000  0.000000
                       0.000000  0.000000  0.000000  0.000000  0.000000  0.000000
                       0.000000  0.000000  0.000000  0.000000  0.000000  0.000000
                       0.000000  0.000000  0.000000  0.000000  0.000000  0.000000
                       0.000000  0.000000  0.000000  0.000000  0.000000  0.000000
                       0.000000  0.000000  0.000000  0.000000  0.000000  0.000000
                       0.000000  0.000000  0.000000  0.000000  0.000000  0.000000
                       0.000000  0.000000  0.000000  0.000000  0.000000  0.000000
                       0.000000  0.000000  0.000000  0.000000  0.000000  0.000000
                       0.000000  0.000000  0.000000  0.000000  0.000000  0.000000
                       0.000000  0.000000  0.000000  0.000000  0.000000  0.000000
                       0.000000  0.000000  0.000000  0.000000  0.000000  0.000000
                       0.000000  0.000000  0.000000  0.000000  0.000000  0.000000
                       0.000000  0.000000  0.000000  0.000000  0.000000  0.000000
                       0.000000  0.000000  0.000000  0.000000  0.000000  0.000000
                       0.000000  0.000000  0.000000  0.000000  0.000000  0.000000
                       0.000000  0.000000  0.000000  0.000000  0.000000  0.000000
                       0.000000  0.000000  0.000000  0.000000  0.000000  0.000000
                       0.000000  0.000000  0.000000  0.000000  0.000000  0.000000
                       0.000000  0.000000  0.000000  0.000000  0.000000  0.000000
                       0.000000  0.000000  0.000000  0.000000  0.000000  0.000000
                       0.000000  0.000000  0.000000  0.000000  0.000000  0.000000
                       0.000000  0.000000  0.000000  0.000000  0.000000  0.000000
                       0.000000  0.000000  0.000000  0.000000  0.000000  0.000000
                       0.000000  0.000000  0.000000  0.000000  0.000000  0.000000
                       0.000000  0.000000  0.000000  0.000000  0.000000  0.000000
                       0.000000  0.000000  0.000000  0.000000  0.000000  0.000000
                       0.000000  0.000000  0.000000  0.000000  0.000000  0.000000
                       0.000000  0.000000  0.000000  0.000000  0.000000  0.000000
                       0.000000  0.000000  0.000000  0.000000  0.000000  0.000000
                       0.000000  0.000000  0.000000  0.000000  0.000000  0.000000
                       0.000000  0.000000  0.000000  0.000000  0.000000  0.000000
                       0.000000  0.000000  0.000000  0.000000  0.000000  0.000000
                       0.000000  0.000000  0.000000  0.000000  0.000000  0.000000
                       0.000000  0.000000  0.000000  0.000000  0.000000  0.000000
                       0.000000  0.000000  0.000000  0.000000  0.000000  0.000000
                       0.000000  0.000000  0.000000  0.000000  0.000000  0.000000
                       0.000000  0.000000  0.000000  0.000000  0.000000  0.000000
                       0.000000  0.000000  0.000000  0.000000  0.000000  0.000000
                       0.000000  0.000000  0.000000  0.000000  0.000000  0.000000
                       0.000000  0.000000  0.000000  0.000000  0.000000  0.000000
                       0.000000  0.000000  0.000000  0.000000  0.000000  0.000000
                       0.000000  0.000000  0.000000  0.000000  0.000000  0.000000
                       0.000000  0.000000  0.000000  0.000000  0.000000  0.000000
                       0.000000  0.000000  0.000000  0.000000  0.000000  0.000000
                       0.000000  0.000000  0.000000  0.000000  0.000000  0.000000
                       0.000000  0.000000  0.000000  0.000000  0.000000  0.000000
                       0.000000  0.000000  0.000000  0.000000  0.000000  0.000000
                       0.000000  0.000000  0.000000  0.000000  0.000000  0.000000
                       0.000000  0.000000  0.000000  0.000000  0.000000  0.000000
                       0.000000  0.000000  0.000000  0.000000  0.000000  0.000000
                       0.000000  0.000000  0.000000  0.000000  0.000000  0.000000
                       0.000000  0.000000  0.000000  0.000000  0.000000  0.000000
                       0.000000  0.000000  0.000000  0.000000  0.000000  0.000000
                       0.000000  0.000000  0.000000  0.000000  0.000000  0.000000
                       0.000000  0.000000  0.000000  0.000000  0.000000  0.000000
                       0.000000  0.000000  0.000000  0.000000  0.000000  0.000000
                       0.000000  0.000000  0.000000  0.000000  0.000000  0.000000
                       0.000000  0.000000  0.000000  0.000000  0.000000  0.000000
                       0.000000  0.000000  0.000000  0.000000  0.000000  0.000000
                       0.000000  0.000000  0.000000  0.000000  0.000000  0.000000
                       0.000000  0.000000  0.000000  0.000000  0.000000  0.000000
                       0.000000  0.000000  0.000000  0.000000  0.000000  0.000000
                       0.000000  0.000000  0.000000  0.000000  0.000000  0.000000
                       0.000000  0.000000  0.000000  0.000000  0.000000  0.000000
                       0.000000  0.000000  0.000000  0.000000  0.000000  0.000000
                       0.000000  0.000000  0.000000  0.000000  0.000000  0.000000
                       0.000000  0.000000  0.000000  0.000000  0.000000  0.000000
                       0.000000  0.000000  0.000000  0.000000  0.000000  0.000000
                       0.000000  0.000000  0.000000  0.000000  0.000000  0.000000
                       0.000000  0.000000  0.000000  0.000000  0.000000  0.000000
                       0.000000  0.000000  0.000000  0.000000  0.000000  0.000000
                       0.000000  0.000000  0.000000  0.000000  0.000000  0.000000
                       0.000000  0.000000  0.000000  0.000000  0.000000  0.000000
                       0.000000  0.000000  0.000000  0.000000  0.000000  0.000000
                       0.000000  0.000000  0.000000  0.000000  0.000000  0.000000
                       0.000000  0.000000  0.000000  0.000000  0.000000  0.000000
                       0.000000  0.000000  0.000000  0.000000  0.000000  0.000000
                       0.000000  0.000000  0.000000  0.000000  0.000000  0.000000
                       0.000000  0.000000  0.000000  0.000000  0.000000  0.000000
                       0.000000  0.000000  0.000000  0.000000  0.000000  0.000000
                       0.000000  0.000000  0.000000  0.000000  0.000000  0.000000
                       0.000000  0.000000  0.000000  0.000000  0.000000  0.000000
                       0.000000  0.000000  0.000000  0.000000  0.000000  0.000000
                       0.000000  0.000000  0.000000  0.000000  0.000000  0.000000
                       0.000000  0.000000  0.000000  0.000000  0.000000  0.000000
[...]
                       0.000000  0.000000  0.000000  0.000000  0.000000  0.000000
                       0.000000  0.000000  0.000000  0.000000  0.000000  0.000000
                       0.000000  0.000000  0.000000  0.000000  0.000000  0.000000
                       0.000000  0.000000  0.000000  0.000000  0.000000  0.000000
                       0.000000  0.000000  0.000000  0.000000  0.000000  0.000000
                       0.000000  0.000000  0.000000  0.000000  0.000000  0.000000
                       0.000000  0.000000  0.000000  0.000000  0.000000  0.000000
                       0.000000  0.000000  0.000000  0.000000  0.000000  0.000000
                       0.000000  0.000000  0.000000  0.000000  0.000000  0.000000
                       0.000000  0.000000  0.000000  0.000000  0.000000  0.000000
                       0.000000  0.000000  0.000000  0.000000  0.000000  0.000000
                       0.000000  0.000000  0.000000  0.000000  0.000000  0.000000
                       0.000000  0.000000  0.000000  0.000000  0.000000  0.000000
                       0.000000  0.000000  0.000000  0.000000  0.000000  0.000000
                       0.000000  0.000000  0.000000  0.000000  0.000000  0.000000
                       0.000000  0.000000  0.000000  0.000000  0.000000  0.000000
                       0.000000  0.000000  0.000000  0.000000  0.000000  0.000000
                       0.000000  0.000000  0.000000  0.000000  0.000000  0.000000
                       0.000000  0.000000  0.000000  0.000000  0.000000  0.000000
                       0.000000  0.000000  0.000000  0.000000  0.000000  0.000000
                       0.000000  0.000000  0.000000  0.000000  0.000000  0.000000
                       0.000000  0.000000  0.000000  0.000000  0.000000  0.000000
                       0.000000  0.000000  0.000000  0.000000  0.000000  0.000000
                       0.000000  0.000000  0.000000  0.000000  0.000000  0.000000
                       0.000000  0.000000  0.000000  0.000000  0.000000  0.000000
                       0.000000  0.000000  0.000000  0.000000  0.000000  0.000000
                       0.000000  0.000000  0.000000  0.000000  0.000000  0.000000
                       0.000000  0.000000  0.000000  0.000000  0.000000  0.000000
                       0.000000  0.000000  0.000000  0.000000  0.000000  0.000000
                       0.000000  0.000000  0.000000  0.000000  0.000000  0.000000
                       0.000000  0.000000  0.000000  0.000000  0.000000  0.000000
                       0.000000  0.000000  0.000000  0.000000  0.000000  0.000000
                       0.000000  0.000000  0.000000  0.000000  0.000000  0.000000
                       0.000000  0.000000  0.000000  0.000000  0.000000  0.000000
                       0.000000  0.000000  0.000000  0.000000  0.000000  0.000000
                       0.000000  0.000000  0.000000  0.000000  0.000000  0.000000
                       0.000000  0.000000  0.000000  0.000000  0.000000  0.000000
                       0.000000  0.000000  0.000000  0.000000
        optdriver           3
            rprim      5.7735026919E-01  0.0000000000E+00  8.1649658093E-01
                      -2.8867513459E-01  5.0000000000E-01  8.1649658093E-01
                      -2.8867513459E-01 -5.0000000000E-01  8.1649658093E-01
          spgroup         225
           strten3     0.0000000000E+00  0.0000000000E+00  0.0000000000E+00
                       0.0000000000E+00  0.0000000000E+00  0.0000000000E+00
           symrel      1  0  0   0  1  0   0  0  1      -1  0  0   0 -1  0   0  0 -1
                       0 -1  1   0 -1  0   1 -1  0       0  1 -1   0  1  0  -1  1  0
                      -1  0  0  -1  0  1  -1  1  0       1  0  0   1  0 -1   1 -1  0
                       0  1 -1   1  0 -1   0  0 -1       0 -1  1  -1  0  1   0  0  1
                      -1  0  0  -1  1  0  -1  0  1       1  0  0   1 -1  0   1  0 -1
                       0 -1  1   1 -1  0   0 -1  0       0  1 -1  -1  1  0   0  1  0
                       1  0  0   0  0  1   0  1  0      -1  0  0   0  0 -1   0 -1  0
                       0  1 -1   0  0 -1   1  0 -1       0 -1  1   0  0  1  -1  0  1
                      -1  0  1  -1  1  0  -1  0  0       1  0 -1   1 -1  0   1  0  0
                       0 -1  0   1 -1  0   0 -1  1       0  1  0  -1  1  0   0  1 -1
                       1  0 -1   0  0 -1   0  1 -1      -1  0  1   0  0  1   0 -1  1
                       0  1  0   0  0  1   1  0  0       0 -1  0   0  0 -1  -1  0  0
                       1  0 -1   0  1 -1   0  0 -1      -1  0  1   0 -1  1   0  0  1
                       0 -1  0   0 -1  1   1 -1  0       0  1  0   0  1 -1  -1  1  0
                      -1  0  1  -1  0  0  -1  1  0       1  0 -1   1  0  0   1 -1  0
                       0  1  0   1  0  0   0  0  1       0 -1  0  -1  0  0   0  0 -1
                       0  0 -1   0  1 -1   1  0 -1       0  0  1   0 -1  1  -1  0  1
                       1 -1  0   0 -1  1   0 -1  0      -1  1  0   0  1 -1   0  1  0
                       0  0  1   1  0  0   0  1  0       0  0 -1  -1  0  0   0 -1  0
                      -1  1  0  -1  0  0  -1  0  1       1 -1  0   1  0  0   1  0 -1
                       0  0  1   0  1  0   1  0  0       0  0 -1   0 -1  0  -1  0  0
                       1 -1  0   0 -1  0   0 -1  1      -1  1  0   0  1  0   0  1 -1
                       0  0 -1   1  0 -1   0  1 -1       0  0  1  -1  0  1   0 -1  1
                      -1  1  0  -1  0  1  -1  0  0       1 -1  0   1  0 -1   1  0  0
           timopt          -1
            typat      1  2  2
              wtk        0.00195    0.01563    0.01563    0.01563    0.00781    0.01172
                         0.04688    0.04688    0.04688    0.04688    0.04688    0.02344
                         0.01172    0.04688    0.04688    0.04688    0.02344    0.01172
                         0.04688    0.02344    0.00586    0.04688    0.09375    0.04688
                         0.04688    0.09375    0.04688    0.02344    0.01172
           xangst      0.0000000000E+00  0.0000000000E+00  0.0000000000E+00
                       0.0000000000E+00  0.0000000000E+00  2.1960158597E+00
                       0.0000000000E+00  0.0000000000E+00  6.5880475791E+00
            xcart      0.0000000000E+00  0.0000000000E+00  0.0000000000E+00
                       0.0000000000E+00  0.0000000000E+00  4.1498685583E+00
                       0.0000000000E+00  0.0000000000E+00  1.2449605675E+01
             xred      0.0000000000E+00  0.0000000000E+00  0.0000000000E+00
                       2.5000000000E-01  2.5000000000E-01  2.5000000000E-01
                       7.5000000000E-01  7.5000000000E-01  7.5000000000E-01
            znucl       40.00000    8.00000
 
================================================================================
 
 Test the timer : 
  a combined call timab(*,1,tsec) + timab(*,2,tsec) is 
- CPU time =    1.6084E-06 sec,    Wall time =    1.6153E-06 sec

- Total cpu        time (s,m,h):      33237.0      553.95      9.232
- Total wall clock time (s,m,h):      33414.0      556.90      9.282
-
- For major independent code sections, cpu and wall times (sec),
-  as well as % of the time and number of calls for node 0
-
-<BEGIN_TIMER mpi_nprocs = 48, omp_nthreads = 1, mpi_rank = 0>
- cpu_time =          687.6, wall_time =          696.4
-
- routine                            cpu     %          wall     %      number of calls Gflops    Speedup Efficacity
-                                                                        (-1=no count)
- wfd_read_wfk                      3.933   0.0         4.516   0.0              1      -1.00        0.87       0.87
- pspini                            0.415   0.0         0.498   0.0              1      -1.00        0.83       0.83
- timing timab                      0.139   0.0         0.140   0.0             12      -1.00        1.00       1.00
- mkffnl                            0.036   0.0         0.036   0.0             29      -1.00        1.00       1.00
- invars2                           0.036   0.0         0.036   0.0              1      -1.00        1.00       1.00
- others (133)                      0.092   0.0         0.105   0.0             -1      -1.00        0.87       0.87
-<END_TIMER>
-
- subtotal                          4.650   0.0         5.330   0.0                                  0.87       0.87

- For major independent code sections, cpu and wall times (sec),
- as well as % of the total time and number of calls 

-<BEGIN_TIMER mpi_nprocs = 48, omp_nthreads = 1, mpi_rank = world>
- cpu_time =       33237.0, wall_time =       33414.0
-
- routine                            cpu     %          wall     %      number of calls Gflops    Speedup Efficacity
-                                                                        (-1=no count)
- wfd_read_wfk                    210.876   0.6       216.719   0.6             48      -1.00        0.97       0.97
- pspini                           20.072   0.1        27.825   0.1             48      -1.00        0.72       0.72
- timing timab                      5.611   0.0         5.631   0.0            389      -1.00        1.00       1.00
- invars2                           1.711   0.0         1.718   0.0             48      -1.00        1.00       1.00
- mkffnl                            1.693   0.0         1.697   0.0           1392      -1.00        1.00       1.00
- abinit(2)                         1.224   0.0         1.244   0.0             48      -1.00        0.98       0.98
- mkcore                            0.823   0.0         0.827   0.0             48      -1.00        1.00       1.00
- fourdp                            0.743   0.0         0.748   0.0            624      -1.00        0.99       0.99
- xc:pot/=fourdp                    0.728   0.0         0.733   0.0             48      -1.00        0.99       0.99
- ewald                             0.725   0.0         0.728   0.0             48      -1.00        0.99       0.99
- kpgsph                            0.189   0.0         0.190   0.0           7133      -1.00        0.99       0.99
- symrhg(no FFT)                    0.158   0.0         0.159   0.0             48      -1.00        0.99       0.99
- others (126)                      0.000   0.0         0.000   0.0             -1      -1.00        0.00       0.00
-<END_TIMER>

- subtotal                        244.552   0.7       258.218   0.8                                  0.95       0.95

 Partitioning of abinit
- abinit                        33236.971 100.0     33414.030 100.0             48                   0.99       0.99
 
- abinit(4)                         7.041   0.0         7.385   0.0             48                   0.95       0.95
- abinit(5)                        10.382   0.0        10.434   0.0             48                   1.00       1.00
- driver                        33212.816  99.9     33388.581  99.9             48                   0.99       0.99

- subtotal                      33236.971 100.0     33414.030 100.0                                  0.99       0.99

 Partitioning of driver
- driver                        33212.816  99.9     33388.581  99.9             48                   0.99       0.99
 
- screening                     33212.619  99.9     33388.383  99.9             48                   0.99       0.99

- subtotal                      33212.816  99.9     33388.581  99.9                                  0.99       0.99

 Partitioning of screening
- screening                     33212.619  99.9     33388.383  99.9             48                   0.99       0.99
 
- screening(init1)                 62.023   0.2        70.403   0.2             48                   0.88       0.88
- screening(wfs)                  212.960   0.6       218.834   0.7             48                   0.97       0.97
- screening(density)                8.003   0.0         8.307   0.0             48                   0.96       0.96
- screening(cchi0q0)              770.739   2.3       775.746   2.3             48                   0.99       0.99
- screening(cchi0)              32111.229  96.6     32266.802  96.6           1344                   1.00       1.00
- screening(q-loop,end)            41.429   0.1        41.833   0.1           1392                   0.99       0.99

- subtotal                      33211.777  99.9     33387.539  99.9                                  0.99       0.99

 Partitioning of  fourdp (upwards partitioning)
- fourdp                            0.743   0.0         0.748   0.0            624                   0.99       0.99
 

- subtotal                          0.743   0.0         0.748   0.0                                  0.99       0.99
-
-Synchronisation (=leave_test) and MPI calls 
- communic.MPI                      0.364   0.0         0.366   0.0             48                   0.99       0.99
-
- subtotal                          0.000   0.0         0.000   0.0                                  0.00       0.00

 Additional information
- timana(1)                         0.002   0.0         0.001   0.0             48                   1.17       1.17
- total timab                       5.738   0.0         5.758   0.0        1007094                   1.00       1.00
- xc:fourdp                         0.438   0.0         0.440   0.0            384                   0.99       0.99
- cchi0                         32111.167  96.6     32266.738  96.6           1344                   1.00       1.00


 Detailed analysis of some time consuming routines 
                                  tcpu    ncalls  tcpu/ncalls    ndata tcpu/ncalls/ndata
                                 (sec)                (msec)              (microsec)
- fourwf%(pot)                   0.000         0
- fourwf%(den)                   0.000         0
- fourdp                         0.743       624       1.191     91125       0.013
- nonlop(apply)                  0.000         0
- nonlop(forces)                 0.000         0
- nonlop(forstr)                 0.000         0
- projbd                         0.000         0
- xc:pot/=fourdp                 0.728        48      15.176     91125       0.167

================================================================================

 Suggested references for the acknowledgment of ABINIT usage.

 The users of ABINIT have little formal obligations with respect to the ABINIT group
 (those specified in the GNU General Public License, http://www.gnu.org/copyleft/gpl.txt).
 However, it is common practice in the scientific literature,
 to acknowledge the efforts of people that have made the research possible.
 In this spirit, please find below suggested citations of work written by ABINIT developers,
 corresponding to implementations inside of ABINIT that you have used in the present run.
 Note also that it will be of great value to readers of publications presenting these results,
 to read papers enabling them to understand the theoretical formalism and details
 of the ABINIT implementation.
 For information on why they are suggested, see also https://docs.abinit.org/theory/acknowledgments.
-
- [1] The Abinit project: Impact, environment and recent developments.
- Computer Phys. Comm. 248, 107042 (2020).
- X.Gonze, B. Amadon, G. Antonius, F.Arnardi, L.Baguet, J.-M.Beuken,
- J.Bieder, F.Bottin, J.Bouchet, E.Bousquet, N.Brouwer, F.Bruneval,
- G.Brunin, T.Cavignac, J.-B. Charraud, Wei Chen, M.Cote, S.Cottenier,
- J.Denier, G.Geneste, Ph.Ghosez, M.Giantomassi, Y.Gillet, O.Gingras,
- D.R.Hamann, G.Hautier, Xu He, N.Helbig, N.Holzwarth, Y.Jia, F.Jollet,
- W.Lafargue-Dit-Hauret, K.Lejaeghere, M.A.L.Marques, A.Martin, C.Martins,
- H.P.C. Miranda, F.Naccarato, K. Persson, G.Petretto, V.Planes, Y.Pouillon,
- S.Prokhorenko, F.Ricci, G.-M.Rignanese, A.H.Romero, M.M.Schmitt, M.Torrent,
- M.J.van Setten, B.Van Troeye, M.J.Verstraete, G.Zerah and J.W.Zwanzig
- Comment: the fifth generic paper describing the ABINIT project.
- Note that a version of this paper, that is not formatted for Computer Phys. Comm. 
- is available at https://www.abinit.org/sites/default/files/ABINIT20.pdf .
- The licence allows the authors to put it on the Web.
- DOI and bibtex: see https://docs.abinit.org/theory/bibliography/#gonze2020
-
- [2] Optimized norm-conserving Vanderbilt pseudopotentials.
- D.R. Hamann, Phys. Rev. B 88, 085117 (2013).
- Comment: Some pseudopotential generated using the ONCVPSP code were used.
- DOI and bibtex: see https://docs.abinit.org/theory/bibliography/#hamann2013
-
- [3] ABINIT: Overview, and focus on selected capabilities
- J. Chem. Phys. 152, 124102 (2020).
- A. Romero, D.C. Allan, B. Amadon, G. Antonius, T. Applencourt, L.Baguet,
- J.Bieder, F.Bottin, J.Bouchet, E.Bousquet, F.Bruneval,
- G.Brunin, D.Caliste, M.Cote,
- J.Denier, C. Dreyer, Ph.Ghosez, M.Giantomassi, Y.Gillet, O.Gingras,
- D.R.Hamann, G.Hautier, F.Jollet, G. Jomard,
- A.Martin, 
- H.P.C. Miranda, F.Naccarato, G.Petretto, N.A. Pike, V.Planes,
- S.Prokhorenko, T. Rangel, F.Ricci, G.-M.Rignanese, M.Royo, M.Stengel, M.Torrent,
- M.J.van Setten, B.Van Troeye, M.J.Verstraete, J.Wiktor, J.W.Zwanziger, and X.Gonze.
- Comment: a global overview of ABINIT, with focus on selected capabilities .
- Note that a version of this paper, that is not formatted for J. Chem. Phys 
- is available at https://www.abinit.org/sites/default/files/ABINIT20_JPC.pdf .
- The licence allows the authors to put it on the Web.
- DOI and bibtex: see https://docs.abinit.org/theory/bibliography/#romero2020
-
- [4] Recent developments in the ABINIT software package.
- Computer Phys. Comm. 205, 106 (2016).
- X.Gonze, F.Jollet, F.Abreu Araujo, D.Adams, B.Amadon, T.Applencourt,
- C.Audouze, J.-M.Beuken, J.Bieder, A.Bokhanchuk, E.Bousquet, F.Bruneval
- D.Caliste, M.Cote, F.Dahm, F.Da Pieve, M.Delaveau, M.Di Gennaro,
- B.Dorado, C.Espejo, G.Geneste, L.Genovese, A.Gerossier, M.Giantomassi,
- Y.Gillet, D.R.Hamann, L.He, G.Jomard, J.Laflamme Janssen, S.Le Roux,
- A.Levitt, A.Lherbier, F.Liu, I.Lukacevic, A.Martin, C.Martins,
- M.J.T.Oliveira, S.Ponce, Y.Pouillon, T.Rangel, G.-M.Rignanese,
- A.H.Romero, B.Rousseau, O.Rubel, A.A.Shukri, M.Stankovski, M.Torrent,
- M.J.Van Setten, B.Van Troeye, M.J.Verstraete, D.Waroquier, J.Wiktor,
- B.Xu, A.Zhou, J.W.Zwanziger.
- Comment: the fourth generic paper describing the ABINIT project.
- Note that a version of this paper, that is not formatted for Computer Phys. Comm. 
- is available at https://www.abinit.org/sites/default/files/ABINIT16.pdf .
- The licence allows the authors to put it on the Web.
- DOI and bibtex: see https://docs.abinit.org/theory/bibliography/#gonze2016
-
- And optionally:
-
- [5] ABINIT: First-principles approach of materials and nanosystem properties.
- Computer Phys. Comm. 180, 2582-2615 (2009).
- X. Gonze, B. Amadon, P.-M. Anglade, J.-M. Beuken, F. Bottin, P. Boulanger, F. Bruneval,
- D. Caliste, R. Caracas, M. Cote, T. Deutsch, L. Genovese, Ph. Ghosez, M. Giantomassi
- S. Goedecker, D.R. Hamann, P. Hermet, F. Jollet, G. Jomard, S. Leroux, M. Mancini, S. Mazevet,
- M.J.T. Oliveira, G. Onida, Y. Pouillon, T. Rangel, G.-M. Rignanese, D. Sangalli, R. Shaltaf,
- M. Torrent, M.J. Verstraete, G. Zerah, J.W. Zwanziger
- Comment: the third generic paper describing the ABINIT project.
- Note that a version of this paper, that is not formatted for Computer Phys. Comm. 
- is available at https://www.abinit.org/sites/default/files/ABINIT_CPC_v10.pdf .
- The licence allows the authors to put it on the Web.
- DOI and bibtex: see https://docs.abinit.org/theory/bibliography/#gonze2009
-
- Proc.   0 individual time (sec): cpu=        687.6  wall=        696.4
 
================================================================================
 
 Calculation completed.
.Delivered   0 WARNINGs and   0 COMMENTs to log file.
+Overall time at end (sec) : cpu=      33249.2  wall=      33426.3
